TITLE = "Visualization of the volumetric solution"
VARIABLES = "x","y","Density","X-Momentum","Y-Momentum","Energy","Pressure","Temperature","C<sub>p</sub>","Mach","<greek>m</greek>","C<sub>f</sub>_x","C<sub>f</sub>_y","h","y<sup>+</sup>"
ZONE NODES= 665, ELEMENTS= 1177, DATAPACKING=POINT, ZONETYPE=FEQUADRILATERAL
-2.000000e-01	1.891946e-01	1.022557e+00	8.511601e-02	-7.362884e-02	3.149462e+00	1.036447e+00	1.013592e+00	2.193506e-01	9.481833e-02	3.534318e-06	0.000000e+00	0.000000e+00	0.000000e+00	0.000000e+00	
-2.000000e-01	0.000000e+00	9.477198e-01	3.474862e-01	-3.455931e-04	2.899534e+00	9.351036e-01	9.866398e-01	-3.905636e-01	3.201509e-01	3.534318e-06	0.000000e+00	0.000000e+00	0.000000e+00	0.000000e+00	
4.000000e-01	8.139740e-02	3.862472e-01	5.589850e-01	1.562403e-02	1.274938e+00	2.870155e-01	7.426433e-01	-4.290930e+00	1.456554e+00	3.534318e-06	0.000000e+00	0.000000e+00	0.000000e+00	0.000000e+00	
4.000000e-01	0.000000e+00	3.874873e-01	5.642433e-01	3.365985e-04	1.283223e+00	2.877649e-01	7.422014e-01	-4.286420e+00	1.465417e+00	3.534318e-06	0.000000e+00	0.000000e+00	0.000000e+00	0.000000e+00	
-2.000000e-01	1.792369e-01	1.009790e+00	9.823646e-02	-6.941936e-02	3.096922e+00	1.018808e+00	1.008930e+00	1.131920e-01	1.028619e-01	3.534318e-06	0.000000e+00	0.000000e+00	0.000000e+00	0.000000e+00	
-2.000000e-01	1.692793e-01	1.006421e+00	1.200266e-01	-8.557581e-02	3.089000e+00	1.015001e+00	1.008521e+00	9.028031e-02	1.265007e-01	3.534318e-06	0.000000e+00	0.000000e+00	0.000000e+00	0.000000e+00	
-2.000000e-01	1.593217e-01	1.003215e+00	1.426904e-01	-7.512658e-02	3.076816e+00	1.010270e+00	1.007026e+00	6.180936e-02	1.389309e-01	3.534318e-06	0.000000e+00	0.000000e+00	0.000000e+00	0.000000e+00	
-2.000000e-01	1.493641e-01	9.977224e-01	1.579518e-01	-6.521627e-02	3.055019e+00	1.002533e+00	1.004811e+00	1.524686e-02	1.481976e-01	3.534318e-06	0.000000e+00	0.000000e+00	0.000000e+00	0.000000e+00	
-2.000000e-01	1.394065e-01	9.928602e-01	1.728996e-01	-5.722791e-02	3.036625e+00	9.957874e-01	1.002934e+00	-2.535245e-02	1.588657e-01	3.534318e-06	0.000000e+00	0.000000e+00	0.000000e+00	0.000000e+00	
-2.000000e-01	1.294489e-01	9.884200e-01	1.889883e-01	-4.988099e-02	3.020665e+00	9.896620e-01	1.001239e+00	-6.221681e-02	1.714088e-01	3.534318e-06	0.000000e+00	0.000000e+00	0.000000e+00	0.000000e+00	
-2.000000e-01	1.194913e-01	9.841424e-01	2.062368e-01	-4.334919e-02	3.006148e+00	9.838091e-01	9.996411e-01	-9.744089e-02	1.857627e-01	3.534318e-06	0.000000e+00	0.000000e+00	0.000000e+00	0.000000e+00	
-2.000000e-01	1.095337e-01	9.799103e-01	2.244220e-01	-3.758826e-02	2.992555e+00	9.780574e-01	9.980856e-01	-1.320564e-01	2.015981e-01	3.534318e-06	0.000000e+00	0.000000e+00	0.000000e+00	0.000000e+00	
-2.000000e-01	9.957608e-02	9.756392e-01	2.430202e-01	-3.246247e-02	2.979444e+00	9.722892e-01	9.965397e-01	-1.667709e-01	2.183378e-01	3.534318e-06	0.000000e+00	0.000000e+00	0.000000e+00	0.000000e+00	
-2.000000e-01	8.961847e-02	9.713455e-01	2.613667e-01	-2.789134e-02	2.966692e+00	9.665174e-01	9.949995e-01	-2.015071e-01	2.352912e-01	3.534318e-06	0.000000e+00	0.000000e+00	0.000000e+00	0.000000e+00	
-2.000000e-01	7.966087e-02	9.670979e-01	2.788171e-01	-2.380591e-02	2.954362e+00	9.608311e-01	9.934868e-01	-2.357290e-01	2.517827e-01	3.534318e-06	0.000000e+00	0.000000e+00	0.000000e+00	0.000000e+00	
-2.000000e-01	6.970326e-02	9.629924e-01	2.948622e-01	-2.011448e-02	2.942628e+00	9.553586e-01	9.920365e-01	-2.686639e-01	2.672516e-01	3.534318e-06	0.000000e+00	0.000000e+00	0.000000e+00	0.000000e+00	
-2.000000e-01	5.974565e-02	9.591618e-01	3.091826e-01	-1.672898e-02	2.931794e+00	9.502625e-01	9.906826e-01	-2.993333e-01	2.812999e-01	3.534318e-06	0.000000e+00	0.000000e+00	0.000000e+00	0.000000e+00	
-2.000000e-01	4.978804e-02	9.557115e-01	3.215125e-01	-1.358621e-02	2.922100e+00	9.456827e-01	9.894645e-01	-3.268959e-01	2.935867e-01	3.534318e-06	0.000000e+00	0.000000e+00	0.000000e+00	0.000000e+00	
-2.000000e-01	3.983043e-02	9.527444e-01	3.316739e-01	-1.063955e-02	2.913789e+00	9.417515e-01	9.884177e-01	-3.505549e-01	3.038543e-01	3.534318e-06	0.000000e+00	0.000000e+00	0.000000e+00	0.000000e+00	
-2.000000e-01	2.987282e-02	9.503416e-01	3.395709e-01	-7.850069e-03	2.907054e+00	9.385729e-01	9.875703e-01	-3.696847e-01	3.119317e-01	3.534318e-06	0.000000e+00	0.000000e+00	0.000000e+00	0.000000e+00	
-2.000000e-01	1.991522e-02	9.485617e-01	3.451641e-01	-5.127111e-03	2.902033e+00	9.362211e-01	9.869427e-01	-3.838386e-01	3.177155e-01	3.534318e-06	0.000000e+00	0.000000e+00	0.000000e+00	0.000000e+00	
-2.000000e-01	9.957608e-03	9.476694e-01	3.491368e-01	-2.438037e-03	2.899971e+00	9.350457e-01	9.866311e-01	-3.909125e-01	3.216979e-01	3.534318e-06	0.000000e+00	0.000000e+00	0.000000e+00	0.000000e+00	
3.899863e-01	8.110947e-02	3.878295e-01	5.601716e-01	1.552674e-02	1.279757e+00	2.885860e-01	7.436617e-01	-4.281478e+00	1.452687e+00	3.534318e-06	0.000000e+00	0.000000e+00	0.000000e+00	0.000000e+00	
3.799727e-01	8.082044e-02	3.908613e-01	5.623940e-01	1.568888e-02	1.288952e+00	2.915993e-01	7.456008e-01	-4.263344e+00	1.445266e+00	3.534318e-06	0.000000e+00	0.000000e+00	0.000000e+00	0.000000e+00	
3.699591e-01	8.053030e-02	3.939000e-01	5.646628e-01	1.552760e-02	1.298245e+00	2.946258e-01	7.475304e-01	-4.245129e+00	1.438030e+00	3.534318e-06	0.000000e+00	0.000000e+00	0.000000e+00	0.000000e+00	
3.599455e-01	8.023905e-02	3.963465e-01	5.663592e-01	1.632886e-02	1.305623e+00	2.970748e-01	7.490934e-01	-4.230391e+00	1.432007e+00	3.534318e-06	0.000000e+00	0.000000e+00	0.000000e+00	0.000000e+00	
3.499319e-01	7.994666e-02	3.991528e-01	5.684207e-01	1.583719e-02	1.314172e+00	2.998731e-01	7.508357e-01	-4.213550e+00	1.425422e+00	3.534318e-06	0.000000e+00	0.000000e+00	0.000000e+00	0.000000e+00	
3.399184e-01	7.965315e-02	4.023586e-01	5.705500e-01	1.637096e-02	1.323731e+00	3.030887e-01	7.528436e-01	-4.194197e+00	1.417505e+00	3.534318e-06	0.000000e+00	0.000000e+00	0.000000e+00	0.000000e+00	
3.299049e-01	7.935848e-02	4.052679e-01	5.724880e-01	1.631879e-02	1.332414e+00	3.060101e-01	7.546458e-01	-4.176616e+00	1.410418e+00	3.534318e-06	0.000000e+00	0.000000e+00	0.000000e+00	0.000000e+00	
3.198915e-01	7.906266e-02	4.087588e-01	5.749089e-01	1.611236e-02	1.343018e+00	3.095292e-01	7.568083e-01	-4.155437e+00	1.402263e+00	3.534318e-06	0.000000e+00	0.000000e+00	0.000000e+00	0.000000e+00	
3.098781e-01	7.876567e-02	4.116967e-01	5.767838e-01	1.701060e-02	1.351822e+00	3.125080e-01	7.586415e-01	-4.137510e+00	1.395170e+00	3.534318e-06	0.000000e+00	0.000000e+00	0.000000e+00	0.000000e+00	
2.998647e-01	7.846750e-02	4.146628e-01	5.788045e-01	1.669209e-02	1.360815e+00	3.155032e-01	7.604367e-01	-4.119484e+00	1.388379e+00	3.534318e-06	0.000000e+00	0.000000e+00	0.000000e+00	0.000000e+00	
2.898514e-01	7.816814e-02	4.175992e-01	5.805871e-01	1.739274e-02	1.369535e+00	3.184908e-01	7.622422e-01	-4.101503e+00	1.381272e+00	3.534318e-06	0.000000e+00	0.000000e+00	0.000000e+00	0.000000e+00	
2.798381e-01	7.786758e-02	4.204970e-01	5.825091e-01	1.694855e-02	1.378307e+00	3.214310e-01	7.639799e-01	-4.083809e+00	1.374696e+00	3.534318e-06	0.000000e+00	0.000000e+00	0.000000e+00	0.000000e+00	
2.698248e-01	7.756581e-02	4.240809e-01	5.846204e-01	1.735346e-02	1.388911e+00	3.250900e-01	7.661500e-01	-4.061788e+00	1.366108e+00	3.534318e-06	0.000000e+00	0.000000e+00	0.000000e+00	0.000000e+00	
2.598116e-01	7.726281e-02	4.273117e-01	5.865509e-01	1.736744e-02	1.398520e+00	3.283918e-01	7.680826e-01	-4.041917e+00	1.358544e+00	3.534318e-06	0.000000e+00	0.000000e+00	0.000000e+00	0.000000e+00	
2.497984e-01	7.695858e-02	4.313194e-01	5.889771e-01	1.718043e-02	1.410545e+00	3.325040e-01	7.704778e-01	-4.017169e+00	1.349372e+00	3.534318e-06	0.000000e+00	0.000000e+00	0.000000e+00	0.000000e+00	
2.397852e-01	7.665310e-02	4.349222e-01	5.909570e-01	1.810113e-02	1.421202e+00	3.362199e-01	7.726378e-01	-3.994805e+00	1.340877e+00	3.534318e-06	0.000000e+00	0.000000e+00	0.000000e+00	0.000000e+00	
2.297721e-01	7.634636e-02	4.384507e-01	5.930855e-01	1.761181e-02	1.431828e+00	3.398491e-01	7.746958e-01	-3.972963e+00	1.333069e+00	3.534318e-06	0.000000e+00	0.000000e+00	0.000000e+00	0.000000e+00	
2.197590e-01	7.603834e-02	4.429240e-01	5.955889e-01	1.780152e-02	1.445175e+00	3.444777e-01	7.773200e-01	-3.945108e+00	1.322949e+00	3.534318e-06	0.000000e+00	0.000000e+00	0.000000e+00	0.000000e+00	
2.097460e-01	7.572905e-02	4.467710e-01	5.977012e-01	1.800701e-02	1.456686e+00	3.484788e-01	7.795807e-01	-3.921028e+00	1.314312e+00	3.534318e-06	0.000000e+00	0.000000e+00	0.000000e+00	0.000000e+00	
1.997330e-01	7.541845e-02	4.523520e-01	6.006202e-01	1.782939e-02	1.473238e+00	3.542923e-01	7.828121e-01	-3.886040e+00	1.301729e+00	3.534318e-06	0.000000e+00	0.000000e+00	0.000000e+00	0.000000e+00	
1.897200e-01	7.510654e-02	4.576965e-01	6.031214e-01	1.898215e-02	1.488877e+00	3.598865e-01	7.858919e-01	-3.852373e+00	1.289428e+00	3.534318e-06	0.000000e+00	0.000000e+00	0.000000e+00	0.000000e+00	
1.797071e-01	7.479330e-02	4.625652e-01	6.056676e-01	1.835550e-02	1.503442e+00	3.649815e-01	7.886332e-01	-3.821710e+00	1.278973e+00	3.534318e-06	0.000000e+00	0.000000e+00	0.000000e+00	0.000000e+00	
1.696942e-01	7.447872e-02	4.682922e-01	6.085351e-01	1.873378e-02	1.520603e+00	3.710101e-01	7.918604e-01	-3.785429e+00	1.266747e+00	3.534318e-06	0.000000e+00	0.000000e+00	0.000000e+00	0.000000e+00	
1.596814e-01	7.416279e-02	4.725696e-01	6.104187e-01	1.912172e-02	1.533200e+00	3.755392e-01	7.942758e-01	-3.758171e+00	1.257276e+00	3.534318e-06	0.000000e+00	0.000000e+00	0.000000e+00	0.000000e+00	
1.496686e-01	7.384549e-02	4.771878e-01	6.124061e-01	1.922763e-02	1.546776e+00	3.804344e-01	7.968460e-01	-3.728710e+00	1.247153e+00	3.534318e-06	0.000000e+00	0.000000e+00	0.000000e+00	0.000000e+00	
1.396559e-01	7.352681e-02	4.811548e-01	6.139387e-01	1.939954e-02	1.558322e+00	3.846647e-01	7.990670e-01	-3.703252e+00	1.238253e+00	3.534318e-06	0.000000e+00	0.000000e+00	0.000000e+00	0.000000e+00	
1.296432e-01	7.320672e-02	4.850658e-01	6.151683e-01	1.940285e-02	1.569426e+00	3.888552e-01	8.012625e-01	-3.678032e+00	1.229043e+00	3.534318e-06	0.000000e+00	0.000000e+00	0.000000e+00	0.000000e+00	
1.196305e-01	7.288522e-02	4.895430e-01	6.166042e-01	1.938060e-02	1.582238e+00	3.936621e-01	8.037524e-01	-3.649103e+00	1.218752e+00	3.534318e-06	0.000000e+00	0.000000e+00	0.000000e+00	0.000000e+00	
1.096179e-01	7.256229e-02	4.948759e-01	6.182728e-01	1.931743e-02	1.597544e+00	3.994049e-01	8.066945e-01	-3.614541e+00	1.206672e+00	3.534318e-06	0.000000e+00	0.000000e+00	0.000000e+00	0.000000e+00	
9.960511e-02	7.224556e-02	5.024194e-01	6.209701e-01	1.832063e-02	1.619671e+00	4.075307e-01	8.107544e-01	-3.565637e+00	1.190691e+00	3.534318e-06	0.000000e+00	0.000000e+00	0.000000e+00	0.000000e+00	
8.959154e-02	7.195409e-02	5.128699e-01	6.244892e-01	1.628201e-02	1.650423e+00	4.188658e-01	8.163337e-01	-3.497420e+00	1.168921e+00	3.534318e-06	0.000000e+00	0.000000e+00	0.000000e+00	0.000000e+00	
7.957764e-02	7.167397e-02	5.252399e-01	6.275983e-01	1.656531e-02	1.686169e+00	4.323826e-01	8.228414e-01	-3.416072e+00	1.142549e+00	3.534318e-06	0.000000e+00	0.000000e+00	0.000000e+00	0.000000e+00	
6.956343e-02	7.140524e-02	5.356796e-01	6.304152e-01	1.622699e-02	1.716936e+00	4.438515e-01	8.282144e-01	-3.347050e+00	1.121643e+00	3.534318e-06	0.000000e+00	0.000000e+00	0.000000e+00	0.000000e+00	
5.954892e-02	7.114792e-02	5.462215e-01	6.323728e-01	1.641036e-02	1.747439e+00	4.555240e-01	8.335992e-01	-3.276801e+00	1.099856e+00	3.534318e-06	0.000000e+00	0.000000e+00	0.000000e+00	0.000000e+00	
4.953412e-02	7.090204e-02	5.566575e-01	6.340593e-01	1.686840e-02	1.777720e+00	4.671361e-01	8.388314e-01	-3.206917e+00	1.078761e+00	3.534318e-06	0.000000e+00	0.000000e+00	0.000000e+00	0.000000e+00	
3.951895e-02	7.067221e-02	5.594422e-01	6.316596e-01	2.009383e-02	1.782829e+00	4.702737e-01	8.402645e-01	-3.188034e+00	1.068581e+00	3.534318e-06	0.000000e+00	0.000000e+00	0.000000e+00	0.000000e+00	
2.950650e-02	7.034573e-02	5.566769e-01	6.264582e-01	2.167000e-02	1.769553e+00	4.672300e-01	8.389709e-01	-3.206351e+00	1.065963e+00	3.534318e-06	0.000000e+00	0.000000e+00	0.000000e+00	0.000000e+00	
1.949570e-02	6.997110e-02	5.595233e-01	6.273345e-01	1.790490e-02	1.778238e+00	4.704060e-01	8.403790e-01	-3.187237e+00	1.060933e+00	3.534318e-06	0.000000e+00	0.000000e+00	0.000000e+00	0.000000e+00	
9.482531e-03	6.966818e-02	5.702075e-01	6.240562e-01	6.767156e-03	1.804073e+00	4.823650e-01	8.456060e-01	-3.115265e+00	1.032056e+00	3.534318e-06	0.000000e+00	0.000000e+00	0.000000e+00	0.000000e+00	
-5.344350e-04	6.955904e-02	5.902807e-01	6.235721e-01	-1.015731e-02	1.860548e+00	5.049684e-01	8.551444e-01	-2.979232e+00	9.907021e-01	3.534318e-06	0.000000e+00	0.000000e+00	0.000000e+00	0.000000e+00	
-1.054957e-02	6.976545e-02	6.130811e-01	6.216826e-01	-3.361254e-02	1.925776e+00	5.308720e-01	8.655965e-01	-2.823337e+00	9.464784e-01	3.534318e-06	0.000000e+00	0.000000e+00	0.000000e+00	0.000000e+00	
-2.054619e-02	7.040256e-02	6.445399e-01	6.190236e-01	-6.200940e-02	2.019792e+00	5.671068e-01	8.795731e-01	-2.605266e+00	8.924471e-01	3.534318e-06	0.000000e+00	0.000000e+00	0.000000e+00	0.000000e+00	
-3.049459e-02	7.156883e-02	6.828290e-01	6.100812e-01	-9.479982e-02	2.134675e+00	6.119473e-01	8.959313e-01	-2.335404e+00	8.283672e-01	3.534318e-06	0.000000e+00	0.000000e+00	0.000000e+00	0.000000e+00	
-4.035399e-02	7.333446e-02	7.213476e-01	5.929425e-01	-1.268056e-01	2.249362e+00	6.577638e-01	9.116198e-01	-2.059668e+00	7.634603e-01	3.534318e-06	0.000000e+00	0.000000e+00	0.000000e+00	0.000000e+00	
-5.007872e-02	7.573292e-02	7.565740e-01	5.703291e-01	-1.569112e-01	2.354697e+00	7.002735e-01	9.253769e-01	-1.803834e+00	7.048278e-01	3.534318e-06	0.000000e+00	0.000000e+00	0.000000e+00	0.000000e+00	
-5.962661e-02	7.875976e-02	7.949518e-01	5.394792e-01	-1.852714e-01	2.471008e+00	7.473860e-01	9.399862e-01	-1.520298e+00	6.418255e-01	3.534318e-06	0.000000e+00	0.000000e+00	0.000000e+00	0.000000e+00	
-6.896606e-02	8.237948e-02	8.264342e-01	5.018900e-01	-2.080919e-01	2.562930e+00	7.862761e-01	9.512537e-01	-1.286247e+00	5.845763e-01	3.534318e-06	0.000000e+00	0.000000e+00	0.000000e+00	0.000000e+00	
-7.807910e-02	8.653699e-02	8.543748e-01	4.678837e-01	-2.222181e-01	2.647474e+00	8.212620e-01	9.611111e-01	-1.075693e+00	5.363172e-01	3.534318e-06	0.000000e+00	0.000000e+00	0.000000e+00	0.000000e+00	
-8.696058e-02	9.116911e-02	8.784222e-01	4.337282e-01	-2.306763e-01	2.719979e+00	8.516398e-01	9.693977e-01	-8.928710e-01	4.926163e-01	3.534318e-06	0.000000e+00	0.000000e+00	0.000000e+00	0.000000e+00	
-9.561505e-02	9.621306e-02	8.989092e-01	4.004992e-01	-2.339684e-01	2.781326e+00	8.776969e-01	9.763056e-01	-7.360525e-01	4.529120e-01	3.534318e-06	0.000000e+00	0.000000e+00	0.000000e+00	0.000000e+00	
-1.040532e-01	1.016114e-01	9.162179e-01	3.687472e-01	-2.325800e-01	2.832529e+00	8.998312e-01	9.820323e-01	-6.028424e-01	4.164456e-01	3.534318e-06	0.000000e+00	0.000000e+00	0.000000e+00	0.000000e+00	
-1.122891e-01	1.073139e-01	9.302066e-01	3.374978e-01	-2.275710e-01	2.872250e+00	9.177577e-01	9.865460e-01	-4.949560e-01	3.821057e-01	3.534318e-06	0.000000e+00	0.000000e+00	0.000000e+00	0.000000e+00	
-1.203375e-01	1.132781e-01	9.413578e-01	3.018150e-01	-2.250203e-01	2.901565e+00	9.319649e-01	9.899603e-01	-4.094531e-01	3.486051e-01	3.534318e-06	0.000000e+00	0.000000e+00	0.000000e+00	0.000000e+00	
-1.282136e-01	1.194683e-01	9.527312e-01	2.793796e-01	-2.170596e-01	2.936705e+00	9.467091e-01	9.936268e-01	-3.207188e-01	3.231016e-01	3.534318e-06	0.000000e+00	0.000000e+00	0.000000e+00	0.000000e+00	
-1.359312e-01	1.258550e-01	9.624507e-01	2.568515e-01	-2.071065e-01	2.965750e+00	9.592935e-01	9.966753e-01	-2.449827e-01	2.978294e-01	3.534318e-06	0.000000e+00	0.000000e+00	0.000000e+00	0.000000e+00	
-1.435033e-01	1.324137e-01	9.713668e-01	2.333551e-01	-1.964322e-01	2.992092e+00	9.708324e-01	9.994130e-01	-1.755382e-01	2.724326e-01	3.534318e-06	0.000000e+00	0.000000e+00	0.000000e+00	0.000000e+00	
-1.509415e-01	1.391239e-01	9.796051e-01	2.100836e-01	-1.909653e-01	3.017441e+00	9.814134e-01	1.001816e+00	-1.118591e-01	2.511376e-01	3.534318e-06	0.000000e+00	0.000000e+00	0.000000e+00	0.000000e+00	
-1.582561e-01	1.459687e-01	9.857978e-01	1.980019e-01	-1.799870e-01	3.037100e+00	9.894837e-01	1.003714e+00	-6.328967e-02	2.349887e-01	3.534318e-06	0.000000e+00	0.000000e+00	0.000000e+00	0.000000e+00	
-1.654564e-01	1.529336e-01	9.933119e-01	1.805673e-01	-1.632863e-01	3.060271e+00	9.992581e-01	1.005968e+00	-4.464896e-03	2.119403e-01	3.534318e-06	0.000000e+00	0.000000e+00	0.000000e+00	0.000000e+00	
-1.725506e-01	1.600067e-01	9.995611e-01	1.612124e-01	-1.421352e-01	3.077801e+00	1.007253e+00	1.007683e+00	4.365333e-02	1.857796e-01	3.534318e-06	0.000000e+00	0.000000e+00	0.000000e+00	0.000000e+00	
-1.795459e-01	1.671775e-01	1.005238e+00	1.335897e-01	-1.283505e-01	3.093071e+00	1.014275e+00	1.008984e+00	8.591307e-02	1.591298e-01	3.534318e-06	0.000000e+00	0.000000e+00	0.000000e+00	0.000000e+00	
-1.864488e-01	1.744373e-01	1.010297e+00	1.170898e-01	-1.105410e-01	3.107862e+00	1.020547e+00	1.010143e+00	1.236588e-01	1.375450e-01	3.534318e-06	0.000000e+00	0.000000e+00	0.000000e+00	0.000000e+00	
-1.932651e-01	1.817785e-01	1.014689e+00	9.945172e-02	-9.591218e-02	3.121092e+00	1.026037e+00	1.011185e+00	1.566975e-01	1.174473e-01	3.534318e-06	0.000000e+00	0.000000e+00	0.000000e+00	0.000000e+00	
4.000000e-01	1.017467e-02	3.880160e-01	5.646850e-01	1.637591e-03	1.284927e+00	2.882985e-01	7.425650e-01	-4.283209e+00	1.464214e+00	3.534318e-06	0.000000e+00	0.000000e+00	0.000000e+00	0.000000e+00	
4.000000e-01	2.034935e-02	3.877740e-01	5.639898e-01	4.037160e-03	1.283626e+00	2.881130e-01	7.425499e-01	-4.284325e+00	1.463370e+00	3.534318e-06	0.000000e+00	0.000000e+00	0.000000e+00	0.000000e+00	
4.000000e-01	3.052402e-02	3.876793e-01	5.633687e-01	5.985453e-03	1.282810e+00	2.881002e-01	7.426980e-01	-4.284402e+00	1.462014e+00	3.534318e-06	0.000000e+00	0.000000e+00	0.000000e+00	0.000000e+00	
4.000000e-01	4.069870e-02	3.875157e-01	5.623942e-01	8.076115e-03	1.281424e+00	2.880406e-01	7.428576e-01	-4.284761e+00	1.460012e+00	3.534318e-06	0.000000e+00	0.000000e+00	0.000000e+00	0.000000e+00	
4.000000e-01	5.087337e-02	3.873864e-01	5.614506e-01	1.016158e-02	1.280145e+00	2.880093e-01	7.430243e-01	-4.284950e+00	1.457973e+00	3.534318e-06	0.000000e+00	0.000000e+00	0.000000e+00	0.000000e+00	
4.000000e-01	6.104805e-02	3.873336e-01	5.607169e-01	1.226367e-02	1.279262e+00	2.880302e-01	7.431795e-01	-4.284823e+00	1.456224e+00	3.534318e-06	0.000000e+00	0.000000e+00	0.000000e+00	0.000000e+00	
4.000000e-01	7.122272e-02	3.870333e-01	5.599097e-01	1.433182e-02	1.277718e+00	2.877789e-01	7.431069e-01	-4.286336e+00	1.455455e+00	3.534318e-06	0.000000e+00	0.000000e+00	0.000000e+00	0.000000e+00	
-1.900000e-01	0.000000e+00	9.480659e-01	3.505846e-01	-1.604055e-03	2.902067e+00	9.355698e-01	9.867716e-01	-3.877579e-01	3.228693e-01	3.534318e-06	0.000000e+00	0.000000e+00	0.000000e+00	0.000000e+00	
-1.800000e-01	0.000000e+00	9.469331e-01	3.573402e-01	-2.261380e-03	2.900272e+00	9.341196e-01	9.864197e-01	-3.964856e-01	3.295463e-01	3.534318e-06	0.000000e+00	0.000000e+00	0.000000e+00	0.000000e+00	
-1.700000e-01	0.000000e+00	9.450239e-01	3.663291e-01	-3.003677e-03	2.896445e+00	9.316782e-01	9.858277e-01	-4.111785e-01	3.386245e-01	3.534318e-06	0.000000e+00	0.000000e+00	0.000000e+00	0.000000e+00	
-1.600000e-01	0.000000e+00	9.417279e-01	3.777292e-01	-3.674581e-03	2.888402e+00	9.274597e-01	9.847958e-01	-4.365668e-01	3.505721e-01	3.534318e-06	0.000000e+00	0.000000e+00	0.000000e+00	0.000000e+00	
-1.500000e-01	0.000000e+00	9.372759e-01	3.935083e-01	-7.065704e-03	2.878133e+00	9.218099e-01	9.834422e-01	-4.705686e-01	3.672447e-01	3.534318e-06	0.000000e+00	0.000000e+00	0.000000e+00	0.000000e+00	
-1.400000e-01	0.000000e+00	9.336788e-01	4.095194e-01	-2.314244e-03	2.871551e+00	9.172736e-01	9.823696e-01	-4.978695e-01	3.838125e-01	3.534318e-06	0.000000e+00	0.000000e+00	0.000000e+00	0.000000e+00	
-1.300000e-01	0.000000e+00	9.253598e-01	4.260850e-01	-7.368570e-03	2.847724e+00	9.066793e-01	9.797458e-01	-5.616288e-01	4.035192e-01	3.534318e-06	0.000000e+00	0.000000e+00	0.000000e+00	0.000000e+00	
-1.200000e-01	0.000000e+00	9.188555e-01	4.443920e-01	-2.896475e-03	2.832062e+00	8.984374e-01	9.777064e-01	-6.112309e-01	4.242216e-01	3.534318e-06	0.000000e+00	0.000000e+00	0.000000e+00	0.000000e+00	
-1.100000e-01	0.000000e+00	9.078782e-01	4.637502e-01	-8.283545e-03	2.800997e+00	8.845666e-01	9.742415e-01	-6.947087e-01	4.489091e-01	3.534318e-06	0.000000e+00	0.000000e+00	0.000000e+00	0.000000e+00	
-1.000000e-01	0.000000e+00	8.948047e-01	4.912540e-01	-1.313139e-02	2.767645e+00	8.681448e-01	9.701135e-01	-7.935397e-01	4.835976e-01	3.534318e-06	0.000000e+00	0.000000e+00	0.000000e+00	0.000000e+00	
-9.000000e-02	0.000000e+00	8.859495e-01	5.154327e-01	-4.535551e-03	2.749297e+00	8.571521e-01	9.673954e-01	-8.596966e-01	5.130243e-01	3.534318e-06	0.000000e+00	0.000000e+00	0.000000e+00	0.000000e+00	
-8.000000e-02	0.000000e+00	8.663299e-01	5.385116e-01	-1.096072e-02	2.692089e+00	8.325275e-01	9.608661e-01	-1.007894e+00	5.500792e-01	3.534318e-06	0.000000e+00	0.000000e+00	0.000000e+00	0.000000e+00	
-7.000000e-02	0.000000e+00	8.513316e-01	5.622886e-01	-4.933731e-03	2.653651e+00	8.138353e-01	9.558277e-01	-1.120389e+00	5.859203e-01	3.534318e-06	0.000000e+00	0.000000e+00	0.000000e+00	0.000000e+00	
-6.000000e-02	0.000000e+00	8.283343e-01	5.825797e-01	-9.290288e-03	2.586293e+00	7.852959e-01	9.478957e-01	-1.292146e+00	6.265700e-01	3.534318e-06	0.000000e+00	0.000000e+00	0.000000e+00	0.000000e+00	
-5.000000e-02	0.000000e+00	8.001656e-01	6.081152e-01	-1.374086e-02	2.507063e+00	7.505139e-01	9.377796e-01	-1.501473e+00	6.807755e-01	3.534318e-06	0.000000e+00	0.000000e+00	0.000000e+00	0.000000e+00	
-4.000000e-02	0.000000e+00	7.836308e-01	6.261887e-01	-5.216073e-03	2.465071e+00	7.304040e-01	9.318950e-01	-1.622500e+00	7.178907e-01	3.534318e-06	0.000000e+00	0.000000e+00	0.000000e+00	0.000000e+00	
-3.000000e-02	0.000000e+00	7.516420e-01	6.412932e-01	-8.269640e-03	2.370458e+00	6.914944e-01	9.197723e-01	-1.856669e+00	7.715533e-01	3.534318e-06	0.000000e+00	0.000000e+00	0.000000e+00	0.000000e+00	
-2.000000e-02	0.000000e+00	7.277886e-01	6.546633e-01	-4.900180e-03	2.304254e+00	6.627971e-01	9.104759e-01	-2.029377e+00	8.175391e-01	3.534318e-06	0.000000e+00	0.000000e+00	0.000000e+00	0.000000e+00	
-1.000000e-02	0.000000e+00	6.960950e-01	6.609453e-01	-3.966764e-03	2.209082e+00	6.250445e-01	8.976824e-01	-2.256582e+00	8.690655e-01	3.534318e-06	0.000000e+00	0.000000e+00	0.000000e+00	0.000000e+00	
-0.000000e+00	0.000000e+00	6.635933e-01	6.671832e-01	-4.059493e-03	2.114506e+00	5.867372e-01	8.839112e-01	-2.487126e+00	9.273568e-01	3.534318e-06	0.000000e+00	0.000000e+00	0.000000e+00	0.000000e+00	
1.000000e-02	0.000000e+00	6.370042e-01	6.679552e-01	-2.067503e-03	2.035504e+00	5.558101e-01	8.722483e-01	-2.673253e+00	9.735976e-01	3.534318e-06	0.000000e+00	0.000000e+00	0.000000e+00	0.000000e+00	
2.000000e-02	0.000000e+00	6.049014e-01	6.654133e-01	-1.812814e-03	1.939814e+00	5.190555e-01	8.577715e-01	-2.894452e+00	1.029926e+00	3.534318e-06	0.000000e+00	0.000000e+00	0.000000e+00	0.000000e+00	
3.000000e-02	0.000000e+00	5.856940e-01	6.629863e-01	-2.012173e-03	1.883195e+00	4.973371e-01	8.488172e-01	-3.025159e+00	1.065384e+00	3.534318e-06	0.000000e+00	0.000000e+00	0.000000e+00	0.000000e+00	
4.000000e-02	0.000000e+00	5.625557e-01	6.572878e-01	1.232310e-03	1.813539e+00	4.714861e-01	8.377751e-01	-3.180737e+00	1.106873e+00	3.534318e-06	0.000000e+00	0.000000e+00	0.000000e+00	0.000000e+00	
5.000000e-02	0.000000e+00	5.445355e-01	6.523041e-01	-1.420014e-04	1.759880e+00	4.515793e-01	8.289417e-01	-3.300541e+00	1.140846e+00	3.534318e-06	0.000000e+00	0.000000e+00	0.000000e+00	0.000000e+00	
6.000000e-02	0.000000e+00	5.339674e-01	6.488605e-01	4.671390e-05	1.728285e+00	4.399951e-01	8.236533e-01	-3.370259e+00	1.160984e+00	3.534318e-06	0.000000e+00	0.000000e+00	0.000000e+00	0.000000e+00	
7.000000e-02	0.000000e+00	5.269287e-01	6.461300e-01	4.355139e-04	1.707000e+00	4.323465e-01	8.201406e-01	-3.416290e+00	1.174042e+00	3.534318e-06	0.000000e+00	0.000000e+00	0.000000e+00	0.000000e+00	
8.000000e-02	0.000000e+00	5.219605e-01	6.441097e-01	3.356241e-04	1.691986e+00	4.269756e-01	8.176573e-01	-3.448613e+00	1.183299e+00	3.534318e-06	0.000000e+00	0.000000e+00	0.000000e+00	0.000000e+00	
9.000000e-02	0.000000e+00	5.176426e-01	6.423920e-01	2.114371e-04	1.679071e+00	4.223278e-01	8.154993e-01	-3.476585e+00	1.191557e+00	3.534318e-06	0.000000e+00	0.000000e+00	0.000000e+00	0.000000e+00	
1.000000e-01	0.000000e+00	5.129625e-01	6.405292e-01	1.818607e-04	1.665098e+00	4.172893e-01	8.131178e-01	-3.506908e+00	1.200692e+00	3.534318e-06	0.000000e+00	0.000000e+00	0.000000e+00	0.000000e+00	
1.100000e-01	0.000000e+00	5.066088e-01	6.380126e-01	1.861926e-04	1.646198e+00	4.104503e-01	8.098167e-01	-3.548067e+00	1.213434e+00	3.534318e-06	0.000000e+00	0.000000e+00	0.000000e+00	0.000000e+00	
1.200000e-01	0.000000e+00	5.002368e-01	6.351625e-01	5.766528e-04	1.627004e+00	4.036294e-01	8.064977e-01	-3.589117e+00	1.225911e+00	3.534318e-06	0.000000e+00	0.000000e+00	0.000000e+00	0.000000e+00	
1.300000e-01	0.000000e+00	4.919573e-01	6.311423e-01	8.384596e-04	1.601822e+00	3.947940e-01	8.021125e-01	-3.642291e+00	1.242027e+00	3.534318e-06	0.000000e+00	0.000000e+00	0.000000e+00	0.000000e+00	
1.400000e-01	0.000000e+00	4.848738e-01	6.278485e-01	-3.417362e-04	1.580614e+00	3.872605e-01	7.982949e-01	-3.687629e+00	1.256582e+00	3.534318e-06	0.000000e+00	0.000000e+00	0.000000e+00	0.000000e+00	
1.500000e-01	0.000000e+00	4.772247e-01	6.241623e-01	9.900575e-04	1.557815e+00	3.791882e-01	7.941768e-01	-3.736211e+00	1.272507e+00	3.534318e-06	0.000000e+00	0.000000e+00	0.000000e+00	0.000000e+00	
1.600000e-01	0.000000e+00	4.701998e-01	6.203633e-01	5.375240e-04	1.536519e+00	3.718128e-01	7.903581e-01	-3.780597e+00	1.286747e+00	3.534318e-06	0.000000e+00	0.000000e+00	0.000000e+00	0.000000e+00	
1.700000e-01	0.000000e+00	4.653468e-01	6.175039e-01	6.320008e-04	1.521615e+00	3.667448e-01	7.877110e-01	-3.811098e+00	1.296342e+00	3.534318e-06	0.000000e+00	0.000000e+00	0.000000e+00	0.000000e+00	
1.800000e-01	0.000000e+00	4.605475e-01	6.148541e-01	4.595969e-04	1.507161e+00	3.617398e-01	7.850536e-01	-3.841219e+00	1.306431e+00	3.534318e-06	0.000000e+00	0.000000e+00	0.000000e+00	0.000000e+00	
1.900000e-01	0.000000e+00	4.562254e-01	6.122288e-01	6.095370e-04	1.493943e+00	3.572631e-01	7.826797e-01	-3.868161e+00	1.315162e+00	3.534318e-06	0.000000e+00	0.000000e+00	0.000000e+00	0.000000e+00	
2.000000e-01	0.000000e+00	4.520557e-01	6.095953e-01	5.928448e-04	1.481097e+00	3.529510e-01	7.803614e-01	-3.894113e+00	1.323541e+00	3.534318e-06	0.000000e+00	0.000000e+00	0.000000e+00	0.000000e+00	
2.100000e-01	0.000000e+00	4.481002e-01	6.072722e-01	3.679130e-04	1.469176e+00	3.488637e-01	7.781299e-01	-3.918711e+00	1.332037e+00	3.534318e-06	0.000000e+00	0.000000e+00	0.000000e+00	0.000000e+00	
2.200000e-01	0.000000e+00	4.447490e-01	6.051210e-01	4.836846e-04	1.458893e+00	3.454171e-01	7.762446e-01	-3.939454e+00	1.338940e+00	3.534318e-06	0.000000e+00	0.000000e+00	0.000000e+00	0.000000e+00	
2.300000e-01	0.000000e+00	4.408630e-01	6.027626e-01	4.129083e-04	1.447173e+00	3.414213e-01	7.740249e-01	-3.963502e+00	1.347401e+00	3.534318e-06	0.000000e+00	0.000000e+00	0.000000e+00	0.000000e+00	
2.400000e-01	0.000000e+00	4.372080e-01	6.003019e-01	6.105122e-04	1.435898e+00	3.376836e-01	7.719480e-01	-3.985996e+00	1.354934e+00	3.534318e-06	0.000000e+00	0.000000e+00	0.000000e+00	0.000000e+00	
2.500000e-01	0.000000e+00	4.330899e-01	5.975837e-01	5.856261e-04	1.423305e+00	3.334780e-01	7.695792e-01	-4.011306e+00	1.363714e+00	3.534318e-06	0.000000e+00	0.000000e+00	0.000000e+00	0.000000e+00	
2.600000e-01	0.000000e+00	4.289444e-01	5.948681e-01	5.663899e-04	1.410711e+00	3.292559e-01	7.671756e-01	-4.036716e+00	1.372778e+00	3.534318e-06	0.000000e+00	0.000000e+00	0.000000e+00	0.000000e+00	
2.700000e-01	0.000000e+00	4.252626e-01	5.922377e-01	6.575917e-04	1.399283e+00	3.255201e-01	7.650343e-01	-4.059199e+00	1.380464e+00	3.534318e-06	0.000000e+00	0.000000e+00	0.000000e+00	0.000000e+00	
2.800000e-01	0.000000e+00	4.218607e-01	5.898224e-01	4.830298e-04	1.388771e+00	3.220730e-01	7.630340e-01	-4.079945e+00	1.387732e+00	3.534318e-06	0.000000e+00	0.000000e+00	0.000000e+00	0.000000e+00	
2.900000e-01	0.000000e+00	4.185494e-01	5.875901e-01	4.183427e-04	1.378734e+00	3.187228e-01	7.610678e-01	-4.100107e+00	1.395212e+00	3.534318e-06	0.000000e+00	0.000000e+00	0.000000e+00	0.000000e+00	
3.000000e-01	0.000000e+00	4.147929e-01	5.850222e-01	8.502200e-04	1.367360e+00	3.149368e-01	7.588349e-01	-4.122893e+00	1.403753e+00	3.534318e-06	0.000000e+00	0.000000e+00	0.000000e+00	0.000000e+00	
3.100000e-01	0.000000e+00	4.115369e-01	5.827385e-01	1.662524e-04	1.357435e+00	3.116560e-01	7.568683e-01	-4.142637e+00	1.411161e+00	3.534318e-06	0.000000e+00	0.000000e+00	0.000000e+00	0.000000e+00	
3.200000e-01	0.000000e+00	4.086838e-01	5.805861e-01	9.458573e-04	1.348599e+00	3.088023e-01	7.551709e-01	-4.159812e+00	1.417353e+00	3.534318e-06	0.000000e+00	0.000000e+00	0.000000e+00	0.000000e+00	
3.300000e-01	0.000000e+00	4.050166e-01	5.779163e-01	6.295738e-04	1.337398e+00	3.051363e-01	7.529592e-01	-4.181874e+00	1.425693e+00	3.534318e-06	0.000000e+00	0.000000e+00	0.000000e+00	0.000000e+00	
3.400000e-01	0.000000e+00	4.023374e-01	5.757961e-01	6.673748e-04	1.329012e+00	3.024679e-01	7.513423e-01	-4.197934e+00	1.431457e+00	3.534318e-06	0.000000e+00	0.000000e+00	0.000000e+00	0.000000e+00	
3.500000e-01	0.000000e+00	3.990864e-01	5.734104e-01	6.753190e-04	1.319119e+00	2.992312e-01	7.493544e-01	-4.217413e+00	1.439039e+00	3.534318e-06	0.000000e+00	0.000000e+00	0.000000e+00	0.000000e+00	
3.600000e-01	0.000000e+00	3.964710e-01	5.714523e-01	6.748464e-05	1.311115e+00	2.966280e-01	7.477334e-01	-4.233079e+00	1.445146e+00	3.534318e-06	0.000000e+00	0.000000e+00	0.000000e+00	0.000000e+00	
3.700000e-01	0.000000e+00	3.941097e-01	5.695910e-01	6.166740e-04	1.303808e+00	2.942932e-01	7.462905e-01	-4.247131e+00	1.450467e+00	3.534318e-06	0.000000e+00	0.000000e+00	0.000000e+00	0.000000e+00	
3.800000e-01	0.000000e+00	3.911934e-01	5.673064e-01	3.614695e-04	1.294820e+00	2.914122e-01	7.444909e-01	-4.264470e+00	1.457173e+00	3.534318e-06	0.000000e+00	0.000000e+00	0.000000e+00	0.000000e+00	