TITLE = "Visualization of the surface solution"
VARIABLES = "x","y","Density","X-Momentum","Y-Momentum","Energy","Pressure","Temperature","C<sub>p</sub>","Mach","<greek>m</greek>","C<sub>f</sub>_x","C<sub>f</sub>_y","h","y<sup>+</sup>"
ZONE NODES= 0, ELEMENTS= 0, DATAPACKING=POINT, ZONETYPE=FELINESEG
