TITLE = "SU2 Simulation"
VARIABLES = "Iteration","CLift","CDrag","CSideForce","CMx","CMy","CMz","CFx","CFy","CFz","CL/CD","Res_Flow[0]","Res_Flow[1]","Res_Flow[2]","Res_Flow[3]","Res_Flow[4]","Linear_Solver_Iterations","Time(min)"
ZONE T= "Convergence history"
           0, 0.0000000000, 0.0000000000, 0.0000000000, 0.0000000000, 0.0000000000, 0.0000000000, 0.0000000000, 0.0000000000, 0.0000000000, 0.0000000000, -1.3381320859, -1.5330622166, -2.2545276261, -0.4082898602, 0.0000000000, 4.0000000000, 0.0014346162
           5, 0.0000000000, 0.0000000000, 0.0000000000, 0.0000000000, 0.0000000000, 0.0000000000, 0.0000000000, 0.0000000000, 0.0000000000, 0.0000000000, -1.8865397908, -2.0215844399, -2.5302806560, -0.9247960135, 0.0000000000, 5.0000000000, 0.0079858303
          10, 0.0000000000, 0.0000000000, 0.0000000000, 0.0000000000, 0.0000000000, 0.0000000000, 0.0000000000, 0.0000000000, 0.0000000000, 0.0000000000, -2.0112300221, -2.1749157281, -2.7065378815, -1.1057480423, 0.0000000000, 5.0000000000, 0.0144633492
          15, 0.0000000000, 0.0000000000, 0.0000000000, 0.0000000000, 0.0000000000, 0.0000000000, 0.0000000000, 0.0000000000, 0.0000000000, 0.0000000000, -2.0839196780, -2.2587890075, -2.8256538321, -1.2130502741, 0.0000000000, 6.0000000000, 0.0213240981
          20, 0.0000000000, 0.0000000000, 0.0000000000, 0.0000000000, 0.0000000000, 0.0000000000, 0.0000000000, 0.0000000000, 0.0000000000, 0.0000000000, -2.1407110495, -2.3159398214, -2.8843078200, -1.2811227755, 0.0000000000, 6.0000000000, 0.0281478008
          25, 0.0000000000, 0.0000000000, 0.0000000000, 0.0000000000, 0.0000000000, 0.0000000000, 0.0000000000, 0.0000000000, 0.0000000000, 0.0000000000, -2.1821300252, -2.3644956903, -2.8814041235, -1.3215925089, 0.0000000000, 6.0000000000, 0.0349921981
          30, 0.0000000000, 0.0000000000, 0.0000000000, 0.0000000000, 0.0000000000, 0.0000000000, 0.0000000000, 0.0000000000, 0.0000000000, 0.0000000000, -2.1890615388, -2.4034166926, -2.8381004409, -1.3199356896, 0.0000000000, 6.0000000000, 0.0420397003
          35, 0.0000000000, 0.0000000000, 0.0000000000, 0.0000000000, 0.0000000000, 0.0000000000, 0.0000000000, 0.0000000000, 0.0000000000, 0.0000000000, -2.1602544443, -2.4553040130, -2.7809513804, -1.2921088536, 0.0000000000, 6.0000000000, 0.0489837805
          40, 0.0000000000, 0.0000000000, 0.0000000000, 0.0000000000, 0.0000000000, 0.0000000000, 0.0000000000, 0.0000000000, 0.0000000000, 0.0000000000, -2.1242593125, -2.5079154951, -2.7073272729, -1.2532332947, 0.0000000000, 6.0000000000, 0.0561663826
          45, 0.0000000000, 0.0000000000, 0.0000000000, 0.0000000000, 0.0000000000, 0.0000000000, 0.0000000000, 0.0000000000, 0.0000000000, 0.0000000000, -2.0906090878, -2.5274864397, -2.6415939451, -1.2177170716, 0.0000000000, 5.0000000000, 0.0628111641
          50, 0.0000000000, 0.0000000000, 0.0000000000, 0.0000000000, 0.0000000000, 0.0000000000, 0.0000000000, 0.0000000000, 0.0000000000, 0.0000000000, -2.0231127601, -2.5290405319, -2.5819567139, -1.1612490831, 0.0000000000, 5.0000000000, 0.0693097472
          55, 0.0000000000, 0.0000000000, 0.0000000000, 0.0000000000, 0.0000000000, 0.0000000000, 0.0000000000, 0.0000000000, 0.0000000000, 0.0000000000, -1.9613036469, -2.5150086492, -2.5376068665, -1.1128965995, 0.0000000000, 5.0000000000, 0.0758210341
          60, 0.0000000000, 0.0000000000, 0.0000000000, 0.0000000000, 0.0000000000, 0.0000000000, 0.0000000000, 0.0000000000, 0.0000000000, 0.0000000000, -1.9180277713, -2.4855709619, -2.5098737939, -1.0765414653, 0.0000000000, 5.0000000000, 0.0823735674
          65, 0.0000000000, 0.0000000000, 0.0000000000, 0.0000000000, 0.0000000000, 0.0000000000, 0.0000000000, 0.0000000000, 0.0000000000, 0.0000000000, -1.8293517045, -2.2910552053, -2.4895918975, -1.0020946985, 0.0000000000, 5.0000000000, 0.0889147997
          70, 0.0000000000, 0.0000000000, 0.0000000000, 0.0000000000, 0.0000000000, 0.0000000000, 0.0000000000, 0.0000000000, 0.0000000000, 0.0000000000, -1.8134086314, -2.4899954616, -2.4431198974, -0.9884445946, 0.0000000000, 5.0000000000, 0.0955708822
          75, 0.0000000000, 0.0000000000, 0.0000000000, 0.0000000000, 0.0000000000, 0.0000000000, 0.0000000000, 0.0000000000, 0.0000000000, 0.0000000000, -1.8751035274, -2.4213174831, -2.4618472200, -1.0448194170, 0.0000000000, 5.0000000000, 0.1024363637
          80, 0.0000000000, 0.0000000000, 0.0000000000, 0.0000000000, 0.0000000000, 0.0000000000, 0.0000000000, 0.0000000000, 0.0000000000, 0.0000000000, -1.8370170177, -2.4587177249, -2.4383572328, -1.0087730051, 0.0000000000, 5.0000000000, 0.1093014995
          85, 0.0000000000, 0.0000000000, 0.0000000000, 0.0000000000, 0.0000000000, 0.0000000000, 0.0000000000, 0.0000000000, 0.0000000000, 0.0000000000, -1.8534410227, -2.4642248332, -2.4186817058, -1.0252254979, 0.0000000000, 5.0000000000, 0.1159593145
          90, 0.0000000000, 0.0000000000, 0.0000000000, 0.0000000000, 0.0000000000, 0.0000000000, 0.0000000000, 0.0000000000, 0.0000000000, 0.0000000000, -1.8562551588, -2.4632956737, -2.4016238269, -1.0262770589, 0.0000000000, 5.0000000000, 0.1228756507
          95, 0.0000000000, 0.0000000000, 0.0000000000, 0.0000000000, 0.0000000000, 0.0000000000, 0.0000000000, 0.0000000000, 0.0000000000, 0.0000000000, -1.8518785846, -2.4237237997, -2.3864806248, -1.0185956684, 0.0000000000, 5.0000000000, 0.1294397473
         100, 0.0000000000, 0.0000000000, 0.0000000000, 0.0000000000, 0.0000000000, 0.0000000000, 0.0000000000, 0.0000000000, 0.0000000000, 0.0000000000, -1.8377650200, -2.3937881497, -2.3666010498, -0.9997462576, 0.0000000000, 6.0000000000, 0.1362679482
         105, 0.0000000000, 0.0000000000, 0.0000000000, 0.0000000000, 0.0000000000, 0.0000000000, 0.0000000000, 0.0000000000, 0.0000000000, 0.0000000000, -1.8121119607, -2.3474200134, -2.3435711952, -0.9662506155, 0.0000000000, 6.0000000000, 0.1432112972
         110, 0.0000000000, 0.0000000000, 0.0000000000, 0.0000000000, 0.0000000000, 0.0000000000, 0.0000000000, 0.0000000000, 0.0000000000, 0.0000000000, -1.7942169179, -2.3244951542, -2.3244505331, -0.9417116949, 0.0000000000, 6.0000000000, 0.1504082004
         115, 0.0000000000, 0.0000000000, 0.0000000000, 0.0000000000, 0.0000000000, 0.0000000000, 0.0000000000, 0.0000000000, 0.0000000000, 0.0000000000, -1.7799247514, -2.2857432926, -2.3285109159, -0.9191353584, 0.0000000000, 6.0000000000, 0.1577456156
         120, 0.0000000000, 0.0000000000, 0.0000000000, 0.0000000000, 0.0000000000, 0.0000000000, 0.0000000000, 0.0000000000, 0.0000000000, 0.0000000000, -1.7587414346, -2.2856886324, -2.3193207535, -0.8820852101, 0.0000000000, 5.0000000000, 0.1645668666
         125, 0.0000000000, 0.0000000000, 0.0000000000, 0.0000000000, 0.0000000000, 0.0000000000, 0.0000000000, 0.0000000000, 0.0000000000, 0.0000000000, -1.7458900098, -2.2466941310, -2.3080699187, -0.8605781516, 0.0000000000, 5.0000000000, 0.1714271307
         130, 0.0000000000, 0.0000000000, 0.0000000000, 0.0000000000, 0.0000000000, 0.0000000000, 0.0000000000, 0.0000000000, 0.0000000000, 0.0000000000, -1.7417279797, -2.2319147504, -2.3242882760, -0.8541398214, 0.0000000000, 6.0000000000, 0.1784433484
         135, 0.0000000000, 0.0000000000, 0.0000000000, 0.0000000000, 0.0000000000, 0.0000000000, 0.0000000000, 0.0000000000, 0.0000000000, 0.0000000000, -1.7373141384, -2.2319910899, -2.3314747084, -0.8508458520, 0.0000000000, 5.0000000000, 0.1856050332
         140, 0.0000000000, 0.0000000000, 0.0000000000, 0.0000000000, 0.0000000000, 0.0000000000, 0.0000000000, 0.0000000000, 0.0000000000, 0.0000000000, -1.7359090314, -2.2316069704, -2.3294642148, -0.8397725231, 0.0000000000, 5.0000000000, 0.1922644655
         145, 0.0000000000, 0.0000000000, 0.0000000000, 0.0000000000, 0.0000000000, 0.0000000000, 0.0000000000, 0.0000000000, 0.0000000000, 0.0000000000, -1.7281327166, -2.2060653414, -2.3134673184, -0.8365304819, 0.0000000000, 5.0000000000, 0.1990074158
         150, 0.0000000000, 0.0000000000, 0.0000000000, 0.0000000000, 0.0000000000, 0.0000000000, 0.0000000000, 0.0000000000, 0.0000000000, 0.0000000000, -1.7310408076, -2.2060458441, -2.3311457316, -0.8379604924, 0.0000000000, 5.0000000000, 0.2056931337
         155, 0.0000000000, 0.0000000000, 0.0000000000, 0.0000000000, 0.0000000000, 0.0000000000, 0.0000000000, 0.0000000000, 0.0000000000, 0.0000000000, -1.7548084102, -2.2089498119, -2.3685160133, -0.8578215716, 0.0000000000, 5.0000000000, 0.2122508327
         160, 0.0000000000, 0.0000000000, 0.0000000000, 0.0000000000, 0.0000000000, 0.0000000000, 0.0000000000, 0.0000000000, 0.0000000000, 0.0000000000, -1.7673401254, -2.2586052878, -2.3886778296, -0.8800485941, 0.0000000000, 5.0000000000, 0.2189863483
         165, 0.0000000000, 0.0000000000, 0.0000000000, 0.0000000000, 0.0000000000, 0.0000000000, 0.0000000000, 0.0000000000, 0.0000000000, 0.0000000000, -1.7674313794, -2.2822411054, -2.3823295373, -0.8958603032, 0.0000000000, 5.0000000000, 0.2257676482
         170, 0.0000000000, 0.0000000000, 0.0000000000, 0.0000000000, 0.0000000000, 0.0000000000, 0.0000000000, 0.0000000000, 0.0000000000, 0.0000000000, -1.7743939248, -2.2805955559, -2.3602673826, -0.9066402584, 0.0000000000, 5.0000000000, 0.2323352655
         175, 0.0000000000, 0.0000000000, 0.0000000000, 0.0000000000, 0.0000000000, 0.0000000000, 0.0000000000, 0.0000000000, 0.0000000000, 0.0000000000, -1.7783495279, -2.2667469161, -2.3568815236, -0.9169081190, 0.0000000000, 5.0000000000, 0.2388658325
         180, 0.0000000000, 0.0000000000, 0.0000000000, 0.0000000000, 0.0000000000, 0.0000000000, 0.0000000000, 0.0000000000, 0.0000000000, 0.0000000000, -1.7985551740, -2.2633873539, -2.3648113818, -0.9335217879, 0.0000000000, 5.0000000000, 0.2454018474
         185, 0.0000000000, 0.0000000000, 0.0000000000, 0.0000000000, 0.0000000000, 0.0000000000, 0.0000000000, 0.0000000000, 0.0000000000, 0.0000000000, -1.8330336622, -2.2160825722, -2.4375846549, -0.9606107166, 0.0000000000, 6.0000000000, 0.2522882978
         190, 0.0000000000, 0.0000000000, 0.0000000000, 0.0000000000, 0.0000000000, 0.0000000000, 0.0000000000, 0.0000000000, 0.0000000000, 0.0000000000, -1.8517943248, -2.1625124654, -2.4509241430, -0.9785712875, 0.0000000000, 5.0000000000, 0.2590073824
         195, 0.0000000000, 0.0000000000, 0.0000000000, 0.0000000000, 0.0000000000, 0.0000000000, 0.0000000000, 0.0000000000, 0.0000000000, 0.0000000000, -1.9432557012, -2.1594613460, -2.4541933303, -1.0502641762, 0.0000000000, 6.0000000000, 0.2657505989
         200, 0.0000000000, 0.0000000000, 0.0000000000, 0.0000000000, 0.0000000000, 0.0000000000, 0.0000000000, 0.0000000000, 0.0000000000, 0.0000000000, -2.0003228915, -2.1807276298, -2.4731420436, -1.1025469492, 0.0000000000, 6.0000000000, 0.2729431311
         205, 0.0000000000, 0.0000000000, 0.0000000000, 0.0000000000, 0.0000000000, 0.0000000000, 0.0000000000, 0.0000000000, 0.0000000000, 0.0000000000, -2.0314094399, -2.1907233846, -2.5102523053, -1.1403093615, 0.0000000000, 6.0000000000, 0.2799099326
         210, 0.0000000000, 0.0000000000, 0.0000000000, 0.0000000000, 0.0000000000, 0.0000000000, 0.0000000000, 0.0000000000, 0.0000000000, 0.0000000000, -1.9889258376, -2.1546394947, -2.4684361983, -1.1134660293, 0.0000000000, 6.0000000000, 0.2871378978
         215, 0.0000000000, 0.0000000000, 0.0000000000, 0.0000000000, 0.0000000000, 0.0000000000, 0.0000000000, 0.0000000000, 0.0000000000, 0.0000000000, -2.1114485862, -2.3147888129, -2.5404971194, -1.1989417554, 0.0000000000, 6.0000000000, 0.2940003157
         220, 0.0000000000, 0.0000000000, 0.0000000000, 0.0000000000, 0.0000000000, 0.0000000000, 0.0000000000, 0.0000000000, 0.0000000000, 0.0000000000, -2.1195989664, -2.3900311786, -2.5663932472, -1.2041145746, 0.0000000000, 6.0000000000, 0.3008686304
         225, 0.0000000000, 0.0000000000, 0.0000000000, 0.0000000000, 0.0000000000, 0.0000000000, 0.0000000000, 0.0000000000, 0.0000000000, 0.0000000000, -2.1008409670, -2.3636171336, -2.6167666275, -1.1949988989, 0.0000000000, 6.0000000000, 0.3078933994
         230, 0.0000000000, 0.0000000000, 0.0000000000, 0.0000000000, 0.0000000000, 0.0000000000, 0.0000000000, 0.0000000000, 0.0000000000, 0.0000000000, -2.1455760204, -2.4540759665, -2.7003981024, -1.2624416624, 0.0000000000, 6.0000000000, 0.3148099979
         235, 0.0000000000, 0.0000000000, 0.0000000000, 0.0000000000, 0.0000000000, 0.0000000000, 0.0000000000, 0.0000000000, 0.0000000000, 0.0000000000, -2.1586520983, -2.5807845774, -2.7647645748, -1.2825368802, 0.0000000000, 6.0000000000, 0.3216806650
         240, 0.0000000000, 0.0000000000, 0.0000000000, 0.0000000000, 0.0000000000, 0.0000000000, 0.0000000000, 0.0000000000, 0.0000000000, 0.0000000000, -2.1882494079, -2.6966161532, -2.7925796805, -1.3247929854, 0.0000000000, 6.0000000000, 0.3289551814
         245, 0.0000000000, 0.0000000000, 0.0000000000, 0.0000000000, 0.0000000000, 0.0000000000, 0.0000000000, 0.0000000000, 0.0000000000, 0.0000000000, -2.2196993100, -2.7769064829, -2.8041652969, -1.3696005943, 0.0000000000, 6.0000000000, 0.3358388503
         250, 0.0000000000, 0.0000000000, 0.0000000000, 0.0000000000, 0.0000000000, 0.0000000000, 0.0000000000, 0.0000000000, 0.0000000000, 0.0000000000, -2.2438676120, -2.8177466796, -2.8177966276, -1.4002197230, 0.0000000000, 6.0000000000, 0.3427187165
         255, 0.0000000000, 0.0000000000, 0.0000000000, 0.0000000000, 0.0000000000, 0.0000000000, 0.0000000000, 0.0000000000, 0.0000000000, 0.0000000000, -2.2661150790, -2.8398419201, -2.8307991649, -1.4226884682, 0.0000000000, 6.0000000000, 0.3497157137
         260, 0.0000000000, 0.0000000000, 0.0000000000, 0.0000000000, 0.0000000000, 0.0000000000, 0.0000000000, 0.0000000000, 0.0000000000, 0.0000000000, -2.2868927236, -2.8410063401, -2.8433255317, -1.4472293489, 0.0000000000, 6.0000000000, 0.3569353978
         265, 0.0000000000, 0.0000000000, 0.0000000000, 0.0000000000, 0.0000000000, 0.0000000000, 0.0000000000, 0.0000000000, 0.0000000000, 0.0000000000, -2.3098126939, -2.8404714336, -2.8515295441, -1.4777112144, 0.0000000000, 6.0000000000, 0.3640572309
         270, 0.0000000000, 0.0000000000, 0.0000000000, 0.0000000000, 0.0000000000, 0.0000000000, 0.0000000000, 0.0000000000, 0.0000000000, 0.0000000000, -2.3362624557, -2.8515280857, -2.8639153454, -1.5138335824, 0.0000000000, 6.0000000000, 0.3711166143
         275, 0.0000000000, 0.0000000000, 0.0000000000, 0.0000000000, 0.0000000000, 0.0000000000, 0.0000000000, 0.0000000000, 0.0000000000, 0.0000000000, -2.3608299955, -2.8772023194, -2.8841461043, -1.5459683015, 0.0000000000, 6.0000000000, 0.3783887823
         280, 0.0000000000, 0.0000000000, 0.0000000000, 0.0000000000, 0.0000000000, 0.0000000000, 0.0000000000, 0.0000000000, 0.0000000000, 0.0000000000, -2.3821146379, -2.9107544092, -2.9075049856, -1.5719040993, 0.0000000000, 6.0000000000, 0.3855934143
         285, 0.0000000000, 0.0000000000, 0.0000000000, 0.0000000000, 0.0000000000, 0.0000000000, 0.0000000000, 0.0000000000, 0.0000000000, 0.0000000000, -2.4027884794, -2.9483829569, -2.9312656779, -1.5916956397, 0.0000000000, 6.0000000000, 0.3925203164
         290, 0.0000000000, 0.0000000000, 0.0000000000, 0.0000000000, 0.0000000000, 0.0000000000, 0.0000000000, 0.0000000000, 0.0000000000, 0.0000000000, -2.4240814992, -2.9816058407, -2.9596222185, -1.6086579574, 0.0000000000, 6.0000000000, 0.3996024330
         295, 0.0000000000, 0.0000000000, 0.0000000000, 0.0000000000, 0.0000000000, 0.0000000000, 0.0000000000, 0.0000000000, 0.0000000000, 0.0000000000, -2.4490032151, -3.0062698069, -3.0010924363, -1.6326325294, 0.0000000000, 6.0000000000, 0.4068788171
         300, 0.0000000000, 0.0000000000, 0.0000000000, 0.0000000000, 0.0000000000, 0.0000000000, 0.0000000000, 0.0000000000, 0.0000000000, 0.0000000000, -2.4714961351, -3.0149097171, -3.0530864899, -1.6471121083, 0.0000000000, 7.0000000000, 0.4143868327
         305, 0.0000000000, 0.0000000000, 0.0000000000, 0.0000000000, 0.0000000000, 0.0000000000, 0.0000000000, 0.0000000000, 0.0000000000, 0.0000000000, -2.4969811010, -2.9876376860, -3.1067042874, -1.6503962314, 0.0000000000, 7.0000000000, 0.4216218472
         310, 0.0000000000, 0.0000000000, 0.0000000000, 0.0000000000, 0.0000000000, 0.0000000000, 0.0000000000, 0.0000000000, 0.0000000000, 0.0000000000, -2.5242011557, -2.9746711393, -3.1413037873, -1.6661288118, 0.0000000000, 7.0000000000, 0.4290159663
         315, 0.0000000000, 0.0000000000, 0.0000000000, 0.0000000000, 0.0000000000, 0.0000000000, 0.0000000000, 0.0000000000, 0.0000000000, 0.0000000000, -2.5534958291, -2.9631894333, -3.1530166090, -1.6956397846, 0.0000000000, 7.0000000000, 0.4364842137
         320, 0.0000000000, 0.0000000000, 0.0000000000, 0.0000000000, 0.0000000000, 0.0000000000, 0.0000000000, 0.0000000000, 0.0000000000, 0.0000000000, -2.5799844379, -2.9505295840, -3.1629654363, -1.7217129127, 0.0000000000, 7.0000000000, 0.4438571334
         325, 0.0000000000, 0.0000000000, 0.0000000000, 0.0000000000, 0.0000000000, 0.0000000000, 0.0000000000, 0.0000000000, 0.0000000000, 0.0000000000, -2.6176174116, -2.9589814586, -3.1311021224, -1.7813021240, 0.0000000000, 7.0000000000, 0.4511987170
         330, 0.0000000000, 0.0000000000, 0.0000000000, 0.0000000000, 0.0000000000, 0.0000000000, 0.0000000000, 0.0000000000, 0.0000000000, 0.0000000000, -2.6374594879, -2.9489345354, -3.1143488393, -1.8218664010, 0.0000000000, 7.0000000000, 0.4587401470
         335, 0.0000000000, 0.0000000000, 0.0000000000, 0.0000000000, 0.0000000000, 0.0000000000, 0.0000000000, 0.0000000000, 0.0000000000, 0.0000000000, -2.6409163939, -2.9251098466, -3.0942388177, -1.8475795324, 0.0000000000, 7.0000000000, 0.4659742673
         340, 0.0000000000, 0.0000000000, 0.0000000000, 0.0000000000, 0.0000000000, 0.0000000000, 0.0000000000, 0.0000000000, 0.0000000000, 0.0000000000, -2.6354317047, -2.9019988890, -3.0781146210, -1.8610737622, 0.0000000000, 7.0000000000, 0.4731823643
         345, 0.0000000000, 0.0000000000, 0.0000000000, 0.0000000000, 0.0000000000, 0.0000000000, 0.0000000000, 0.0000000000, 0.0000000000, 0.0000000000, -2.6136457629, -2.8799305254, -3.0635179108, -1.8368274270, 0.0000000000, 7.0000000000, 0.4808418155
         350, 0.0000000000, 0.0000000000, 0.0000000000, 0.0000000000, 0.0000000000, 0.0000000000, 0.0000000000, 0.0000000000, 0.0000000000, 0.0000000000, -2.5918881893, -2.8560464292, -3.0478431900, -1.8245307112, 0.0000000000, 8.0000000000, 0.4885826310
         355, 0.0000000000, 0.0000000000, 0.0000000000, 0.0000000000, 0.0000000000, 0.0000000000, 0.0000000000, 0.0000000000, 0.0000000000, 0.0000000000, -2.5845566843, -2.8321923851, -3.0353070907, -1.8417678213, 0.0000000000, 8.0000000000, 0.4960273981
         360, 0.0000000000, 0.0000000000, 0.0000000000, 0.0000000000, 0.0000000000, 0.0000000000, 0.0000000000, 0.0000000000, 0.0000000000, 0.0000000000, -2.5663608176, -2.8088278146, -3.0147144674, -1.8267545411, 0.0000000000, 8.0000000000, 0.5036605000
         365, 0.0000000000, 0.0000000000, 0.0000000000, 0.0000000000, 0.0000000000, 0.0000000000, 0.0000000000, 0.0000000000, 0.0000000000, 0.0000000000, -2.5457456367, -2.7947238231, -2.9924011185, -1.8082534562, 0.0000000000, 8.0000000000, 0.5113043666
         370, 0.0000000000, 0.0000000000, 0.0000000000, 0.0000000000, 0.0000000000, 0.0000000000, 0.0000000000, 0.0000000000, 0.0000000000, 0.0000000000, -2.5348651328, -2.8013351916, -2.9728704644, -1.7954825858, 0.0000000000, 8.0000000000, 0.5192318837
         375, 0.0000000000, 0.0000000000, 0.0000000000, 0.0000000000, 0.0000000000, 0.0000000000, 0.0000000000, 0.0000000000, 0.0000000000, 0.0000000000, -2.5127278470, -2.8157088948, -2.9441407134, -1.7523636734, 0.0000000000, 8.0000000000, 0.5268861810
         380, 0.0000000000, 0.0000000000, 0.0000000000, 0.0000000000, 0.0000000000, 0.0000000000, 0.0000000000, 0.0000000000, 0.0000000000, 0.0000000000, -2.5260262631, -2.8384011366, -2.9578369428, -1.7710346750, 0.0000000000, 8.0000000000, 0.5344721635
         385, 0.0000000000, 0.0000000000, 0.0000000000, 0.0000000000, 0.0000000000, 0.0000000000, 0.0000000000, 0.0000000000, 0.0000000000, 0.0000000000, -2.5287968606, -2.8778570976, -2.9669532489, -1.7722840357, 0.0000000000, 8.0000000000, 0.5426678658
         390, 0.0000000000, 0.0000000000, 0.0000000000, 0.0000000000, 0.0000000000, 0.0000000000, 0.0000000000, 0.0000000000, 0.0000000000, 0.0000000000, -2.5268750998, -2.9184903414, -2.9715806566, -1.7608540126, 0.0000000000, 8.0000000000, 0.5503124674
         395, 0.0000000000, 0.0000000000, 0.0000000000, 0.0000000000, 0.0000000000, 0.0000000000, 0.0000000000, 0.0000000000, 0.0000000000, 0.0000000000, -2.5375020201, -2.9362726333, -2.9838466081, -1.7526330354, 0.0000000000, 8.0000000000, 0.5585571329
         400, 0.0000000000, 0.0000000000, 0.0000000000, 0.0000000000, 0.0000000000, 0.0000000000, 0.0000000000, 0.0000000000, 0.0000000000, 0.0000000000, -2.5596339090, -2.9211222280, -3.0026803868, -1.7473142708, 0.0000000000, 8.0000000000, 0.5660257975
         405, 0.0000000000, 0.0000000000, 0.0000000000, 0.0000000000, 0.0000000000, 0.0000000000, 0.0000000000, 0.0000000000, 0.0000000000, 0.0000000000, -2.5740863234, -2.8832579771, -3.0162217135, -1.7336259805, 0.0000000000, 8.0000000000, 0.5740957816
         410, 0.0000000000, 0.0000000000, 0.0000000000, 0.0000000000, 0.0000000000, 0.0000000000, 0.0000000000, 0.0000000000, 0.0000000000, 0.0000000000, -2.5940701768, -2.8737865002, -3.0256676283, -1.7516410517, 0.0000000000, 8.0000000000, 0.5820202827
         415, 0.0000000000, 0.0000000000, 0.0000000000, 0.0000000000, 0.0000000000, 0.0000000000, 0.0000000000, 0.0000000000, 0.0000000000, 0.0000000000, -2.6175825186, -2.9146663499, -3.0385893862, -1.7820306011, 0.0000000000, 8.0000000000, 0.5899274151
         420, 0.0000000000, 0.0000000000, 0.0000000000, 0.0000000000, 0.0000000000, 0.0000000000, 0.0000000000, 0.0000000000, 0.0000000000, 0.0000000000, -2.6022680187, -2.9726726739, -3.0220777083, -1.7542849654, 0.0000000000, 8.0000000000, 0.5977528334
         425, 0.0000000000, 0.0000000000, 0.0000000000, 0.0000000000, 0.0000000000, 0.0000000000, 0.0000000000, 0.0000000000, 0.0000000000, 0.0000000000, -2.6742136036, -3.0299811838, -3.0682831976, -1.8356132274, 0.0000000000, 8.0000000000, 0.6057818810
         430, 0.0000000000, 0.0000000000, 0.0000000000, 0.0000000000, 0.0000000000, 0.0000000000, 0.0000000000, 0.0000000000, 0.0000000000, 0.0000000000, -2.7237231367, -3.0897067923, -3.1200857904, -1.8928912828, 0.0000000000, 8.0000000000, 0.6147231817
         435, 0.0000000000, 0.0000000000, 0.0000000000, 0.0000000000, 0.0000000000, 0.0000000000, 0.0000000000, 0.0000000000, 0.0000000000, 0.0000000000, -2.7271699621, -3.1605573134, -3.1525501771, -1.8983960547, 0.0000000000, 8.0000000000, 0.6226588170
         440, 0.0000000000, 0.0000000000, 0.0000000000, 0.0000000000, 0.0000000000, 0.0000000000, 0.0000000000, 0.0000000000, 0.0000000000, 0.0000000000, -2.7334619704, -3.2301084171, -3.1889617559, -1.9075952237, 0.0000000000, 8.0000000000, 0.6305098812
         445, 0.0000000000, 0.0000000000, 0.0000000000, 0.0000000000, 0.0000000000, 0.0000000000, 0.0000000000, 0.0000000000, 0.0000000000, 0.0000000000, -2.7415988754, -3.2906461052, -3.2040441933, -1.9134515012, 0.0000000000, 8.0000000000, 0.6384231488
         450, 0.0000000000, 0.0000000000, 0.0000000000, 0.0000000000, 0.0000000000, 0.0000000000, 0.0000000000, 0.0000000000, 0.0000000000, 0.0000000000, -2.7601097472, -3.3431185839, -3.2227276212, -1.9395899975, 0.0000000000, 8.0000000000, 0.6460941831
         455, 0.0000000000, 0.0000000000, 0.0000000000, 0.0000000000, 0.0000000000, 0.0000000000, 0.0000000000, 0.0000000000, 0.0000000000, 0.0000000000, -2.7800124693, -3.3801304602, -3.2436378058, -1.9644183136, 0.0000000000, 8.0000000000, 0.6542335312
         460, 0.0000000000, 0.0000000000, 0.0000000000, 0.0000000000, 0.0000000000, 0.0000000000, 0.0000000000, 0.0000000000, 0.0000000000, 0.0000000000, -2.7954344694, -3.3924813880, -3.2661201713, -1.9809047778, 0.0000000000, 8.0000000000, 0.6618616978
         465, 0.0000000000, 0.0000000000, 0.0000000000, 0.0000000000, 0.0000000000, 0.0000000000, 0.0000000000, 0.0000000000, 0.0000000000, 0.0000000000, -2.8143927756, -3.3980500219, -3.2769591040, -2.0043192315, 0.0000000000, 8.0000000000, 0.6696119308
         470, 0.0000000000, 0.0000000000, 0.0000000000, 0.0000000000, 0.0000000000, 0.0000000000, 0.0000000000, 0.0000000000, 0.0000000000, 0.0000000000, -2.8377372162, -3.3931204602, -3.2840947511, -2.0313633378, 0.0000000000, 8.0000000000, 0.6774007638
         475, 0.0000000000, 0.0000000000, 0.0000000000, 0.0000000000, 0.0000000000, 0.0000000000, 0.0000000000, 0.0000000000, 0.0000000000, 0.0000000000, -2.8657199183, -3.3858703691, -3.2947530395, -2.0697606286, 0.0000000000, 8.0000000000, 0.6850896835
         480, 0.0000000000, 0.0000000000, 0.0000000000, 0.0000000000, 0.0000000000, 0.0000000000, 0.0000000000, 0.0000000000, 0.0000000000, 0.0000000000, -2.8909733699, -3.3749256191, -3.3120135002, -2.1068441185, 0.0000000000, 8.0000000000, 0.6929829001
         485, 0.0000000000, 0.0000000000, 0.0000000000, 0.0000000000, 0.0000000000, 0.0000000000, 0.0000000000, 0.0000000000, 0.0000000000, 0.0000000000, -2.9137219004, -3.3607015944, -3.3292544681, -2.1247347082, 0.0000000000, 8.0000000000, 0.7007477482
         490, 0.0000000000, 0.0000000000, 0.0000000000, 0.0000000000, 0.0000000000, 0.0000000000, 0.0000000000, 0.0000000000, 0.0000000000, 0.0000000000, -2.9324847741, -3.3421155051, -3.3362344922, -2.1127073345, 0.0000000000, 8.0000000000, 0.7084321976
         495, 0.0000000000, 0.0000000000, 0.0000000000, 0.0000000000, 0.0000000000, 0.0000000000, 0.0000000000, 0.0000000000, 0.0000000000, 0.0000000000, -2.9574418215, -3.3370684389, -3.3398702548, -2.1154356123, 0.0000000000, 8.0000000000, 0.7162456473
