TITLE= "Visualization of the volumetric grid"
VARIABLES = "x","y" 
ZONE NODES= 4884, ELEMENTS= 9208, DATAPACKING=POINT, ZONETYPE=FEQUADRILATERAL
0.000000e+00	0.000000e+00	
-5.000000e-01	4.000000e-01	
-5.000000e-01	-4.000000e-01	
0.000000e+00	-4.000000e-01	
1.000000e+00	-1.100208e+00	
1.500000e+00	-1.100208e+00	
0.000000e+00	4.000000e-01	
1.000000e+00	-3.002080e-01	
1.500000e+00	-3.002080e-01	
3.814900e-03	-6.156870e-03	
7.515780e-03	-1.139016e-02	
1.121780e-02	-1.600319e-02	
1.504287e-02	-2.022853e-02	
1.906356e-02	-2.415398e-02	
2.330331e-02	-2.780207e-02	
2.776113e-02	-3.116357e-02	
3.242232e-02	-3.422623e-02	
3.727102e-02	-3.698100e-02	
4.229250e-02	-3.942617e-02	
4.747996e-02	-4.156626e-02	
5.286272e-02	-4.342014e-02	
5.848516e-02	-4.500149e-02	
6.435094e-02	-4.630573e-02	
7.053657e-02	-4.734168e-02	
7.726405e-02	-4.811551e-02	
8.472904e-02	-4.859270e-02	
9.311934e-02	-4.870849e-02	
1.024695e-01	-4.838416e-02	
1.125390e-01	-4.757577e-02	
1.229723e-01	-4.631580e-02	
1.334922e-01	-4.468338e-02	
1.439924e-01	-4.275924e-02	
1.544595e-01	-4.061078e-02	
1.648968e-01	-3.829927e-02	
1.753063e-01	-3.588578e-02	
1.857016e-01	-3.342943e-02	
1.961076e-01	-3.099233e-02	
2.065442e-01	-2.864279e-02	
2.170148e-01	-2.642047e-02	
2.275153e-01	-2.433872e-02	
2.380446e-01	-2.241256e-02	
2.486016e-01	-2.065670e-02	
2.591855e-01	-1.908702e-02	
2.697950e-01	-1.772040e-02	
2.804279e-01	-1.657069e-02	
2.910813e-01	-1.565436e-02	
3.017502e-01	-1.498496e-02	
3.124291e-01	-1.457096e-02	
3.231125e-01	-1.442151e-02	
3.337927e-01	-1.453816e-02	
3.444581e-01	-1.491808e-02	
3.551037e-01	-1.555516e-02	
3.657357e-01	-1.643605e-02	
3.763575e-01	-1.754965e-02	
3.869763e-01	-1.889852e-02	
3.975990e-01	-2.049176e-02	
4.081544e-01	-2.232691e-02	
4.186466e-01	-2.440595e-02	
4.290691e-01	-2.673218e-02	
4.394145e-01	-2.930467e-02	
4.496940e-01	-3.212662e-02	
4.599118e-01	-3.520124e-02	
4.700586e-01	-3.852557e-02	
4.801264e-01	-4.209725e-02	
4.901097e-01	-4.591066e-02	
5.000028e-01	-4.996133e-02	
5.098008e-01	-5.424462e-02	
5.195007e-01	-5.875347e-02	
5.290996e-01	-6.348258e-02	
5.385950e-01	-6.842518e-02	
5.479856e-01	-7.357226e-02	
5.572687e-01	-7.891724e-02	
5.664425e-01	-8.445279e-02	
5.755049e-01	-9.017299e-02	
5.844553e-01	-9.607117e-02	
5.932916e-01	-1.021407e-01	
6.020072e-01	-1.083709e-01	
6.105907e-01	-1.147495e-01	
6.190485e-01	-1.212746e-01	
6.273970e-01	-1.279533e-01	
6.356366e-01	-1.347845e-01	
6.437659e-01	-1.417602e-01	
6.517822e-01	-1.488768e-01	
6.596857e-01	-1.561287e-01	
6.674749e-01	-1.635134e-01	
6.751520e-01	-1.710257e-01	
6.827144e-01	-1.786641e-01	
6.901630e-01	-1.864223e-01	
6.974960e-01	-1.942970e-01	
7.047129e-01	-2.022860e-01	
7.118138e-01	-2.103877e-01	
7.187990e-01	-2.185995e-01	
7.256675e-01	-2.269178e-01	
7.324194e-01	-2.353377e-01	
7.390557e-01	-2.438545e-01	
7.455785e-01	-2.524638e-01	
7.519861e-01	-2.611573e-01	
7.582737e-01	-2.699177e-01	
7.644395e-01	-2.787368e-01	
7.705045e-01	-2.876309e-01	
7.764792e-01	-2.966105e-01	
7.823631e-01	-3.056654e-01	
7.881573e-01	-3.147890e-01	
7.938643e-01	-3.239793e-01	
7.994891e-01	-3.332333e-01	
8.050348e-01	-3.425475e-01	
8.105027e-01	-3.519196e-01	
8.158979e-01	-3.613463e-01	
8.212219e-01	-3.708258e-01	
8.264779e-01	-3.803552e-01	
8.316696e-01	-3.899313e-01	
8.367983e-01	-3.995530e-01	
8.418665e-01	-4.092177e-01	
8.468763e-01	-4.189216e-01	
8.518302e-01	-4.286624e-01	
8.567297e-01	-4.384392e-01	
8.615799e-01	-4.482493e-01	
8.663873e-01	-4.580886e-01	
8.711589e-01	-4.679524e-01	
8.758998e-01	-4.778371e-01	
8.806153e-01	-4.877389e-01	
8.853105e-01	-4.976549e-01	
8.899901e-01	-5.075828e-01	
8.946595e-01	-5.175187e-01	
8.993225e-01	-5.274599e-01	
9.039828e-01	-5.374044e-01	
9.086463e-01	-5.473488e-01	
9.133164e-01	-5.572904e-01	
9.179977e-01	-5.672255e-01	
9.226959e-01	-5.771472e-01	
9.274142e-01	-5.870455e-01	
9.321649e-01	-5.969301e-01	
9.370007e-01	-6.068835e-01	
9.418847e-01	-6.168010e-01	
9.467574e-01	-6.265314e-01	
9.514794e-01	-6.357724e-01	
9.558763e-01	-6.441790e-01	
9.599782e-01	-6.518153e-01	
9.639820e-01	-6.590412e-01	
9.680148e-01	-6.660541e-01	
9.721040e-01	-6.728401e-01	
9.761890e-01	-6.792251e-01	
9.801084e-01	-6.848954e-01	
9.839089e-01	-6.898700e-01	
9.878302e-01	-6.943121e-01	
9.921479e-01	-6.981229e-01	
9.972555e-01	-7.004641e-01	
1.002296e+00	-6.985727e-01	
1.004538e+00	-6.934898e-01	
1.005234e+00	-6.878651e-01	
1.005228e+00	-6.820361e-01	
1.004789e+00	-6.759484e-01	
1.004010e+00	-6.694587e-01	
1.002917e+00	-6.624480e-01	
1.001539e+00	-6.549690e-01	
9.999454e-01	-6.472597e-01	
9.981755e-01	-6.393905e-01	
9.962073e-01	-6.311886e-01	
9.939835e-01	-6.223976e-01	
9.914690e-01	-6.128966e-01	
9.887133e-01	-6.028743e-01	
9.858143e-01	-5.926661e-01	
9.828313e-01	-5.824379e-01	
9.797847e-01	-5.722214e-01	
9.766837e-01	-5.620157e-01	
9.735345e-01	-5.518171e-01	
9.703421e-01	-5.416226e-01	
9.671113e-01	-5.314286e-01	
9.638469e-01	-5.212317e-01	
9.605509e-01	-5.110287e-01	
9.572257e-01	-5.008161e-01	
9.538751e-01	-4.905914e-01	
9.505009e-01	-4.803535e-01	
9.471039e-01	-4.700972e-01	
9.436849e-01	-4.598128e-01	
9.402433e-01	-4.494934e-01	
9.367809e-01	-4.391356e-01	
9.333005e-01	-4.287393e-01	
9.298026e-01	-4.182979e-01	
9.262861e-01	-4.077964e-01	
9.227511e-01	-3.972271e-01	
9.191967e-01	-3.865823e-01	
9.156245e-01	-3.758582e-01	
9.120346e-01	-3.650620e-01	
9.084378e-01	-3.542250e-01	
9.048402e-01	-3.433665e-01	
9.012408e-01	-3.324868e-01	
8.976419e-01	-3.215927e-01	
8.940475e-01	-3.107037e-01	
8.904570e-01	-2.998140e-01	
8.868613e-01	-2.889039e-01	
8.832639e-01	-2.779826e-01	
8.796758e-01	-2.670910e-01	
8.761068e-01	-2.562609e-01	
8.725417e-01	-2.454513e-01	
8.689704e-01	-2.346340e-01	
8.653949e-01	-2.238193e-01	
8.617716e-01	-2.128813e-01	
8.581066e-01	-2.018399e-01	
8.544627e-01	-1.908990e-01	
8.508298e-01	-1.800254e-01	
8.471928e-01	-1.691818e-01	
8.435249e-01	-1.582921e-01	
8.397626e-01	-1.471788e-01	
8.359684e-01	-1.360338e-01	
8.321674e-01	-1.249326e-01	
8.283490e-01	-1.138551e-01	
8.244930e-01	-1.027453e-01	
8.205464e-01	-9.146094e-02	
8.164767e-01	-7.991851e-02	
8.123555e-01	-6.833318e-02	
8.082792e-01	-5.698567e-02	
8.042566e-01	-4.592087e-02	
8.002310e-01	-3.499149e-02	
7.961484e-01	-2.407928e-02	
7.919285e-01	-1.299163e-02	
7.875901e-01	-1.807180e-03	
7.831613e-01	9.370640e-03	
7.786025e-01	2.061471e-02	
7.739052e-01	3.191821e-02	
7.690460e-01	4.330120e-02	
7.640686e-01	5.463595e-02	
7.589613e-01	6.592171e-02	
7.536948e-01	7.719795e-02	
7.482541e-01	8.846862e-02	
7.426354e-01	9.971149e-02	
7.368971e-01	1.107866e-01	
7.309918e-01	1.217728e-01	
7.248891e-01	1.326977e-01	
7.186562e-01	1.434253e-01	
7.121655e-01	1.541558e-01	
7.054646e-01	1.647812e-01	
6.986638e-01	1.751169e-01	
6.916736e-01	1.852942e-01	
6.844016e-01	1.954248e-01	
6.768617e-01	2.054656e-01	
6.690716e-01	2.153765e-01	
6.610533e-01	2.251227e-01	
6.528743e-01	2.346199e-01	
6.446488e-01	2.437464e-01	
6.361582e-01	2.527464e-01	
6.272467e-01	2.617585e-01	
6.180205e-01	2.706437e-01	
6.087213e-01	2.791611e-01	
5.994141e-01	2.872675e-01	
5.899963e-01	2.950591e-01	
5.802396e-01	3.027120e-01	
5.702020e-01	3.101542e-01	
5.601150e-01	3.172088e-01	
5.499354e-01	3.239067e-01	
5.397209e-01	3.302161e-01	
5.292849e-01	3.362430e-01	
5.186369e-01	3.419672e-01	
5.078610e-01	3.473311e-01	
4.969105e-01	3.523468e-01	
4.858569e-01	3.569717e-01	
4.749081e-01	3.611237e-01	
4.638644e-01	3.648861e-01	
4.526585e-01	3.682686e-01	
4.412804e-01	3.712591e-01	
4.297536e-01	3.738371e-01	
4.181299e-01	3.759825e-01	
4.063766e-01	3.776920e-01	
3.946949e-01	3.789385e-01	
3.832840e-01	3.797215e-01	
3.719253e-01	3.800778e-01	
3.605668e-01	3.800104e-01	
3.492253e-01	3.795224e-01	
3.379225e-01	3.786156e-01	
3.266747e-01	3.772949e-01	
3.154998e-01	3.755668e-01	
3.044148e-01	3.734397e-01	
2.934342e-01	3.709240e-01	
2.825693e-01	3.680302e-01	
2.718322e-01	3.647694e-01	
2.612337e-01	3.611536e-01	
2.507801e-01	3.571963e-01	
2.404671e-01	3.529051e-01	
2.302589e-01	3.482715e-01	
2.200977e-01	3.432725e-01	
2.100946e-01	3.379643e-01	
2.003190e-01	3.323996e-01	
1.906437e-01	3.265174e-01	
1.810680e-01	3.203188e-01	
1.716485e-01	3.138461e-01	
1.624445e-01	3.071564e-01	
1.534925e-01	3.002910e-01	
1.447630e-01	2.932490e-01	
1.362112e-01	2.860116e-01	
1.279210e-01	2.786719e-01	
1.198302e-01	2.711958e-01	
1.118432e-01	2.635071e-01	
1.039810e-01	2.556263e-01	
9.629517e-02	2.476110e-01	
8.881676e-02	2.395009e-01	
8.149063e-02	2.312399e-01	
7.437578e-02	2.228968e-01	
6.747967e-02	2.144840e-01	
6.076122e-02	2.059506e-01	
5.422082e-02	1.972893e-01	
4.787017e-02	1.885048e-01	
4.172136e-02	1.796036e-01	
3.578936e-02	1.705902e-01	
3.008648e-02	1.614667e-01	
2.462850e-02	1.522308e-01	
1.942997e-02	1.428775e-01	
1.450691e-02	1.333954e-01	
9.873980e-03	1.237595e-01	
5.538400e-03	1.139022e-01	
1.501040e-03	1.036920e-01	
-2.211890e-03	9.296530e-02	
-5.466440e-03	8.175001e-02	
-8.016420e-03	7.054514e-02	
-9.715240e-03	5.992696e-02	
-1.058919e-02	5.010001e-02	
-1.071996e-02	4.094367e-02	
-1.014706e-02	3.223146e-02	
-8.841040e-03	2.375303e-02	
-6.706400e-03	1.540042e-02	
-3.685760e-03	7.283790e-03	
-5.000000e-01	3.396424e-01	
-5.000000e-01	2.767125e-01	
-5.000000e-01	2.074986e-01	
-5.000000e-01	1.282989e-01	
-5.000000e-01	4.208902e-02	
-5.000000e-01	-4.645588e-02	
-5.000000e-01	-1.317003e-01	
-5.000000e-01	-2.091322e-01	
-5.000000e-01	-2.772263e-01	
-5.000000e-01	-3.397325e-01	
-4.391377e-01	-4.000000e-01	
-3.800418e-01	-4.000000e-01	
-3.252088e-01	-4.000000e-01	
-2.778109e-01	-4.000000e-01	
-2.388819e-01	-4.000000e-01	
-2.067353e-01	-4.000000e-01	
-1.787869e-01	-4.000000e-01	
-1.534377e-01	-4.000000e-01	
-1.294772e-01	-4.000000e-01	
-1.068196e-01	-4.000000e-01	
-8.533713e-02	-4.000000e-01	
-6.429065e-02	-4.000000e-01	
-4.310171e-02	-4.000000e-01	
-2.164023e-02	-4.000000e-01	
1.906992e-02	-3.892982e-01	
3.807060e-02	-3.792548e-01	
5.702280e-02	-3.698655e-01	
7.602871e-02	-3.610909e-01	
9.527204e-02	-3.528714e-01	
1.151053e-01	-3.451148e-01	
1.356762e-01	-3.378516e-01	
1.567913e-01	-3.312398e-01	
1.781901e-01	-3.254311e-01	
1.996976e-01	-3.205164e-01	
2.212950e-01	-3.165353e-01	
2.430225e-01	-3.135159e-01	
2.647615e-01	-3.115073e-01	
2.863479e-01	-3.105389e-01	
3.075486e-01	-3.106080e-01	
3.282027e-01	-3.116696e-01	
3.485798e-01	-3.137026e-01	
3.688993e-01	-3.167260e-01	
3.892003e-01	-3.207661e-01	
4.093675e-01	-3.258132e-01	
4.291590e-01	-3.317917e-01	
4.483526e-01	-3.385828e-01	
4.668818e-01	-3.460901e-01	
4.849475e-01	-3.543312e-01	
5.029741e-01	-3.634823e-01	
5.205212e-01	-3.733011e-01	
5.373000e-01	-3.835514e-01	
5.534098e-01	-3.942036e-01	
5.687734e-01	-4.051180e-01	
5.833607e-01	-4.161782e-01	
5.979663e-01	-4.279481e-01	
6.123395e-01	-4.402239e-01	
6.260168e-01	-4.525575e-01	
6.388748e-01	-4.647442e-01	
6.512776e-01	-4.770532e-01	
6.635366e-01	-4.897645e-01	
6.755561e-01	-5.027623e-01	
6.872049e-01	-5.158763e-01	
6.985167e-01	-5.291047e-01	
7.096223e-01	-5.425755e-01	
7.205073e-01	-5.562513e-01	
7.311255e-01	-5.700497e-01	
7.415610e-01	-5.840616e-01	
7.520854e-01	-5.986508e-01	
7.626694e-01	-6.137962e-01	
7.730036e-01	-6.290495e-01	
7.828361e-01	-6.439986e-01	
7.925486e-01	-6.591895e-01	
8.021946e-01	-6.747001e-01	
8.116405e-01	-6.903048e-01	
8.209602e-01	-7.061139e-01	
8.299907e-01	-7.218273e-01	
8.389120e-01	-7.377415e-01	
8.479777e-01	-7.543159e-01	
8.571059e-01	-7.714224e-01	
8.660077e-01	-7.885151e-01	
8.744903e-01	-8.051867e-01	
8.827713e-01	-8.218302e-01	
8.910847e-01	-8.389103e-01	
8.994081e-01	-8.563892e-01	
9.076363e-01	-8.740488e-01	
9.158587e-01	-8.920774e-01	
9.240216e-01	-9.103591e-01	
9.321930e-01	-9.290525e-01	
9.403050e-01	-9.480030e-01	
9.481498e-01	-9.667092e-01	
9.559467e-01	-9.856772e-01	
9.636240e-01	-1.004726e+00	
9.710925e-01	-1.023617e+00	
9.784055e-01	-1.042466e+00	
9.856383e-01	-1.061457e+00	
9.928246e-01	-1.080671e+00	
1.020950e+00	-1.100208e+00	
1.042121e+00	-1.100208e+00	
1.063449e+00	-1.100208e+00	
1.085184e+00	-1.100208e+00	
1.107189e+00	-1.100208e+00	
1.129374e+00	-1.100208e+00	
1.151748e+00	-1.100208e+00	
1.174411e+00	-1.100208e+00	
1.197540e+00	-1.100208e+00	
1.221209e+00	-1.100208e+00	
1.245425e+00	-1.100208e+00	
1.270692e+00	-1.100208e+00	
1.297502e+00	-1.100208e+00	
1.325823e+00	-1.100208e+00	
1.355866e+00	-1.100208e+00	
1.388552e+00	-1.100208e+00	
1.423898e+00	-1.100208e+00	
1.461354e+00	-1.100208e+00	
-2.164023e-02	4.000000e-01	
-4.310171e-02	4.000000e-01	
-6.429065e-02	4.000000e-01	
-8.533713e-02	4.000000e-01	
-1.068196e-01	4.000000e-01	
-1.294772e-01	4.000000e-01	
-1.534377e-01	4.000000e-01	
-1.787869e-01	4.000000e-01	
-2.067353e-01	4.000000e-01	
-2.388819e-01	4.000000e-01	
-2.778109e-01	4.000000e-01	
-3.252088e-01	4.000000e-01	
-3.800418e-01	4.000000e-01	
-4.391377e-01	4.000000e-01	
9.928246e-01	-2.806708e-01	
9.856383e-01	-2.614568e-01	
9.784055e-01	-2.424662e-01	
9.710925e-01	-2.236170e-01	
9.636240e-01	-2.047259e-01	
9.559467e-01	-1.856772e-01	
9.481498e-01	-1.667092e-01	
9.403050e-01	-1.480030e-01	
9.321930e-01	-1.290525e-01	
9.240216e-01	-1.103591e-01	
9.158587e-01	-9.207740e-02	
9.076363e-01	-7.404876e-02	
8.994081e-01	-5.638923e-02	
8.910847e-01	-3.891027e-02	
8.827713e-01	-2.183023e-02	
8.744903e-01	-5.186660e-03	
8.660077e-01	1.148492e-02	
8.571059e-01	2.857756e-02	
8.479777e-01	4.568408e-02	
8.389120e-01	6.225854e-02	
8.299907e-01	7.817267e-02	
8.209602e-01	9.388612e-02	
8.116405e-01	1.096952e-01	
8.021946e-01	1.252999e-01	
7.925486e-01	1.408105e-01	
7.828361e-01	1.560014e-01	
7.730036e-01	1.709505e-01	
7.626694e-01	1.862038e-01	
7.520854e-01	2.013492e-01	
7.415610e-01	2.159384e-01	
7.311255e-01	2.299503e-01	
7.205073e-01	2.437487e-01	
7.096223e-01	2.574245e-01	
6.985167e-01	2.708953e-01	
6.872049e-01	2.841237e-01	
6.755561e-01	2.972377e-01	
6.635366e-01	3.102355e-01	
6.512776e-01	3.229468e-01	
6.388748e-01	3.352558e-01	
6.260168e-01	3.474425e-01	
6.123395e-01	3.597761e-01	
5.979663e-01	3.720519e-01	
5.833607e-01	3.838218e-01	
5.687734e-01	3.948820e-01	
5.534098e-01	4.057964e-01	
5.373000e-01	4.164486e-01	
5.205212e-01	4.266989e-01	
5.029741e-01	4.365177e-01	
4.849475e-01	4.456688e-01	
4.668818e-01	4.539099e-01	
4.483526e-01	4.614171e-01	
4.291590e-01	4.682083e-01	
4.093675e-01	4.741868e-01	
3.892003e-01	4.792339e-01	
3.688993e-01	4.832740e-01	
3.485798e-01	4.862974e-01	
3.282027e-01	4.883304e-01	
3.075486e-01	4.893920e-01	
2.863479e-01	4.894611e-01	
2.647615e-01	4.884927e-01	
2.430225e-01	4.864841e-01	
2.212950e-01	4.834647e-01	
1.996976e-01	4.794836e-01	
1.781901e-01	4.745689e-01	
1.567913e-01	4.687602e-01	
1.356762e-01	4.621484e-01	
1.151053e-01	4.548852e-01	
9.527204e-02	4.471286e-01	
7.602871e-02	4.389091e-01	
5.702280e-02	4.301345e-01	
3.807060e-02	4.207452e-01	
1.906992e-02	4.107018e-01	
1.461354e+00	-3.002080e-01	
1.423898e+00	-3.002080e-01	
1.388552e+00	-3.002080e-01	
1.355866e+00	-3.002080e-01	
1.325823e+00	-3.002080e-01	
1.297502e+00	-3.002080e-01	
1.270692e+00	-3.002080e-01	
1.245425e+00	-3.002080e-01	
1.221209e+00	-3.002080e-01	
1.197540e+00	-3.002080e-01	
1.174411e+00	-3.002080e-01	
1.151748e+00	-3.002080e-01	
1.129374e+00	-3.002080e-01	
1.107189e+00	-3.002080e-01	
1.085184e+00	-3.002080e-01	
1.063449e+00	-3.002080e-01	
1.042121e+00	-3.002080e-01	
1.020950e+00	-3.002080e-01	
1.500000e+00	-1.061604e+00	
1.500000e+00	-1.024171e+00	
1.500000e+00	-9.881163e-01	
1.500000e+00	-9.532417e-01	
1.500000e+00	-9.196531e-01	
1.500000e+00	-8.874417e-01	
1.500000e+00	-8.562793e-01	
1.500000e+00	-8.256497e-01	
1.500000e+00	-7.951720e-01	
1.500000e+00	-7.648182e-01	
1.500000e+00	-7.347748e-01	
1.500000e+00	-7.051115e-01	
1.500000e+00	-6.757314e-01	
1.500000e+00	-6.463925e-01	
1.500000e+00	-6.166287e-01	
1.500000e+00	-5.860264e-01	
1.500000e+00	-5.545298e-01	
1.500000e+00	-5.216435e-01	
1.500000e+00	-4.873569e-01	
1.500000e+00	-4.518687e-01	
1.500000e+00	-4.151928e-01	
1.500000e+00	-3.774676e-01	
1.500000e+00	-3.390728e-01	
-4.241594e-01	9.721898e-02	
-4.333907e-01	-1.744019e-01	
-3.780227e-01	2.209803e-01	
-4.322274e-01	1.747365e-01	
-4.170973e-01	3.187424e-02	
-3.972025e-01	-9.899170e-02	
-4.202346e-01	-2.291787e-01	
-3.299627e-01	-1.215255e-01	
-3.783729e-01	-1.708932e-01	
-4.410097e-01	2.459059e-01	
-4.454380e-01	3.102266e-01	
-3.795295e-01	-3.554702e-02	
-4.327797e-01	-2.915469e-01	
-3.525376e-01	1.165332e-01	
-3.518188e-01	-2.344520e-01	
-3.705565e-01	-2.983666e-01	
-4.058989e-01	-3.475867e-01	
-4.053015e-01	3.478952e-01	
-3.258723e-01	1.817394e-01	
-3.121389e-01	-2.721209e-02	
-3.442362e-01	2.501775e-02	
-3.034828e-01	7.384521e-02	
-3.595767e-01	2.745608e-01	
-2.677693e-01	1.839913e-01	
-3.121668e-01	-1.838084e-01	
-2.926296e-01	-9.150050e-02	
-2.828381e-01	2.387882e-02	
-3.486006e-01	3.525691e-01	
-3.069823e-01	2.482175e-01	
-3.485512e-01	-3.522832e-01	
-2.904687e-01	1.323982e-01	
-3.103404e-01	3.026841e-01	
-2.660301e-01	2.802266e-01	
-2.683299e-01	3.248354e-01	
-2.978635e-01	3.584375e-01	
-2.548818e-01	-3.701389e-01	
-2.975384e-01	-3.588141e-01	
-3.107047e-01	-2.999035e-01	
-2.905323e-01	-2.393230e-01	
-2.405002e-01	-2.436997e-01	
-2.567595e-01	-1.985563e-01	
-2.511369e-01	9.437637e-02	
-2.381505e-01	-9.443740e-02	
-2.617333e-01	-2.832951e-01	
-2.306198e-01	2.083550e-02	
-2.383119e-01	1.420270e-01	
-2.545502e-01	-2.320079e-02	
-2.052116e-01	-1.783633e-02	
-2.138536e-01	-5.297515e-02	
-2.623048e-01	-1.389574e-01	
1.467708e+00	-3.976344e-01	
1.468959e+00	-4.340512e-01	
1.455502e+00	-3.635109e-01	
1.294435e+00	-1.017436e+00	
-2.071458e-01	1.100161e-01	
1.438934e+00	-3.303783e-01	
-2.318318e-01	2.194270e-01	
1.440494e+00	-1.067851e+00	
1.425872e+00	-4.060932e-01	
1.419178e+00	-3.608414e-01	
1.463434e+00	-1.032674e+00	
-2.704606e-01	-3.297112e-01	
1.469454e+00	-9.979865e-01	
1.442586e+00	-9.504986e-01	
1.470167e+00	-9.690141e-01	
1.471794e+00	-9.358425e-01	
1.444612e+00	-4.486504e-01	
1.426536e+00	-4.784728e-01	
-1.865842e-01	1.979669e-02	
1.428987e+00	-1.043136e+00	
1.402926e+00	-3.295034e-01	
1.458312e+00	-4.809880e-01	
-1.935769e-01	-9.053654e-02	
-1.966310e-01	1.481834e-01	
-2.147104e-01	-2.110388e-01	
-2.499437e-01	3.596287e-01	
1.469003e+00	-5.465960e-01	
1.464184e+00	-5.144011e-01	
1.396730e+00	-4.935771e-01	
1.371037e+00	-4.727421e-01	
1.437167e+00	-1.009639e+00	
1.443267e+00	-9.763090e-01	
1.398127e+00	-4.601011e-01	
1.397232e+00	-4.258932e-01	
1.394206e+00	-3.915366e-01	
1.365181e+00	-3.738916e-01	
-1.486551e-01	-3.478963e-02	
-2.011257e-01	6.133286e-02	
-1.667097e-01	8.071950e-02	
-2.353476e-01	3.077114e-01	
1.432754e+00	-5.033531e-01	
1.371139e+00	-4.398230e-01	
-2.224577e-01	-1.666081e-01	
1.405127e+00	-1.070757e+00	
1.417895e+00	-9.557834e-01	
-1.635900e-01	1.553304e-01	
-2.181079e-01	3.717802e-01	
1.405164e+00	-1.019062e+00	
1.439135e+00	-5.353205e-01	
1.369398e+00	-4.064128e-01	
1.412352e+00	-9.875215e-01	
1.343164e+00	-4.562959e-01	
-2.045866e-01	1.901326e-01	
6.530261e-01	-4.016993e-01	
-1.656988e-01	-1.168058e-02	
1.388416e+00	-9.668530e-01	
-1.709414e-01	1.231393e-01	
1.384520e+00	-3.584879e-01	
1.369178e+00	-3.288935e-01	
-2.341774e-01	-3.485292e-01	
-2.149679e-01	-1.299705e-01	
-1.639194e-01	4.932697e-02	
1.382169e+00	-9.971217e-01	
1.342566e+00	-4.245181e-01	
1.448989e+00	-9.247197e-01	
1.374422e+00	-1.027365e+00	
1.402284e+00	-9.367098e-01	
1.408909e+00	-5.254848e-01	
-2.310577e-01	-3.147251e-01	
1.452314e+00	-8.937337e-01	
-1.731878e-01	-5.881554e-02	
-2.219233e-01	3.391201e-01	
1.352302e+00	-3.519365e-01	
1.372083e+00	-1.073177e+00	
1.462984e+00	-5.760722e-01	
1.316784e+00	-1.040228e+00	
1.344952e+00	-1.034200e+00	
1.372815e+00	-9.436064e-01	
1.455528e+00	-8.637992e-01	
1.467236e+00	-6.059725e-01	
1.316290e+00	-4.407561e-01	
1.424874e+00	-9.051574e-01	
-1.339597e-01	-6.684560e-03	
1.353113e+00	-1.005742e+00	
1.359814e+00	-9.767541e-01	
1.440097e+00	-5.955595e-01	
1.428537e+00	-8.756372e-01	
1.381203e+00	-9.152579e-01	
3.704762e-01	4.673502e-01	
1.338299e+00	-3.247171e-01	
1.387271e+00	-5.476511e-01	
1.472635e+00	-7.766968e-01	
1.480138e+00	-7.480296e-01	
1.474579e+00	-7.192425e-01	
1.476399e+00	-6.903895e-01	
1.325015e+00	-1.013116e+00	
1.471210e+00	-6.349893e-01	
1.402010e+00	-8.863853e-01	
1.460093e+00	-8.397855e-01	
1.431709e+00	-8.469166e-01	
1.444487e+00	-6.242322e-01	
1.454324e+00	-7.346710e-01	
1.353116e+00	-9.221180e-01	
1.341072e+00	-1.074944e+00	
1.024382e+00	-3.201151e-01	
1.380118e+00	-8.686508e-01	
1.332165e+00	-9.855664e-01	
1.444557e+00	-7.720404e-01	
1.415657e+00	-5.558342e-01	
1.413264e+00	-5.858609e-01	
1.337975e+00	-9.577679e-01	
1.463881e+00	-8.150260e-01	
1.439134e+00	-7.997675e-01	
1.322209e+00	-3.492965e-01	
-2.029320e-01	3.135821e-01	
1.452982e+00	-7.064860e-01	
1.405825e+00	-8.582761e-01	
-2.051813e-01	-3.652969e-01	
-1.417678e-01	-6.465926e-02	
1.474260e+00	-6.629443e-01	
1.450614e+00	-6.786214e-01	
1.418056e+00	-6.140279e-01	
1.360899e+00	-8.949711e-01	
1.378727e+00	-5.124283e-01	
1.348452e+00	-5.212063e-01	
-2.030230e-01	-3.354389e-01	
1.423096e+00	-7.544205e-01	
1.284601e+00	-5.655206e-01	
1.305348e+00	-9.932792e-01	
1.316762e+00	-9.399346e-01	
-1.942495e-01	2.235034e-01	
-1.508745e-01	1.860862e-02	
1.429792e+00	-7.215650e-01	
1.435992e+00	-8.233540e-01	
1.408792e+00	-8.307446e-01	
1.406060e+00	-7.093412e-01	
1.428144e+00	-6.944856e-01	
1.448100e+00	-6.517892e-01	
1.334142e+00	-9.017233e-01	
1.393783e+00	-5.764638e-01	
1.392358e+00	-6.050005e-01	
1.412530e+00	-8.078597e-01	
1.362983e+00	-5.394003e-01	
1.366697e+00	-5.685773e-01	
1.309604e+00	-3.240572e-01	
-1.923936e-01	-1.861040e-01	
-1.667463e-01	-1.964361e-01	
-1.830610e-01	-2.176753e-01	
1.418333e+00	-7.812936e-01	
1.311633e+00	-9.666795e-01	
1.290134e+00	-1.037608e+00	
1.270091e+00	-1.055423e+00	
1.322298e+00	-5.564464e-01	
1.352015e+00	-4.925386e-01	
1.311940e+00	-1.076419e+00	
1.425436e+00	-6.675886e-01	
-1.417105e-01	1.347407e-01	
1.422345e+00	-6.413763e-01	
1.384014e+00	-8.417401e-01	
1.386744e+00	-8.152862e-01	
1.341379e+00	-8.757542e-01	
1.397977e+00	-7.638383e-01	
-1.802685e-01	-3.795737e-01	
1.397129e+00	-6.316612e-01	
1.294482e+00	-3.466088e-01	
-1.833492e-01	2.919963e-01	
1.302229e+00	-5.742641e-01	
1.404054e+00	-6.832702e-01	
1.291609e+00	-9.489435e-01	
1.268581e+00	-3.442519e-01	
1.392848e+00	-7.896551e-01	
-1.884313e-01	-1.546263e-01	
-1.785449e-01	-1.264067e-01	
1.356052e+00	-8.504601e-01	
1.263409e+00	-1.036972e+00	
-1.352403e-01	7.399934e-02	
1.286062e+00	-9.746130e-01	
1.282865e+00	-3.229699e-01	
1.400906e+00	-6.574030e-01	
1.340041e+00	-3.935365e-01	
1.319970e+00	-5.308868e-01	
1.284391e+00	-1.077687e+00	
-1.971919e-01	-3.064960e-01	
1.315861e+00	-8.823771e-01	
1.343596e+00	-5.612139e-01	
1.326927e+00	-5.829483e-01	
1.372877e+00	-5.958090e-01	
1.372303e+00	-6.228037e-01	
1.239260e+00	-1.045441e+00	
1.368133e+00	-7.972432e-01	
1.271543e+00	-1.005463e+00	
1.247591e+00	-9.957078e-01	
-1.790957e-01	-3.525177e-01	
1.261266e+00	-9.816117e-01	
1.363277e+00	-8.255978e-01	
1.323054e+00	-5.041740e-01	
1.380635e+00	-6.730003e-01	
1.258153e+00	-1.078456e+00	
1.272241e+00	-9.321092e-01	
1.322701e+00	-8.574471e-01	
1.243794e+00	-1.020568e+00	
1.224515e+00	-1.004832e+00	
1.301857e+00	-9.110660e-01	
1.290857e+00	-8.878421e-01	
1.347569e+00	-5.885087e-01	
1.330650e+00	-6.083631e-01	
1.373567e+00	-7.724479e-01	
1.376940e+00	-6.480722e-01	
1.304722e+00	-8.400694e-01	
1.315108e+00	-4.110316e-01	
1.267247e+00	-9.570650e-01	
1.338719e+00	-8.316994e-01	
-1.737366e-01	2.009177e-01	
-1.751940e-01	-3.259817e-01	
1.232972e+00	-1.078787e+00	
1.257455e+00	-3.217053e-01	
1.232994e+00	-3.209667e-01	
1.349868e+00	-7.801969e-01	
-1.441717e-01	1.046046e-01	
1.276431e+00	-9.072370e-01	
1.401231e+00	-7.357084e-01	
1.377542e+00	-7.253395e-01	
-1.331000e-01	4.262684e-02	
1.298325e+00	-8.639245e-01	
-1.886254e-01	3.745166e-01	
1.243481e+00	-9.641877e-01	
1.211130e+00	-1.054668e+00	
1.345424e+00	-8.078152e-01	
1.353310e+00	-6.142259e-01	
1.353359e+00	-6.397190e-01	
1.376998e+00	-7.450239e-01	
1.354670e+00	-7.341866e-01	
1.295664e+00	-5.152615e-01	
1.277490e+00	-5.883717e-01	
1.253360e+00	-9.161178e-01	
1.200737e+00	-1.076578e+00	
1.274436e+00	-8.693941e-01	
1.310890e+00	-3.862261e-01	
1.283415e+00	-3.824957e-01	
1.258328e+00	-3.773897e-01	
1.248913e+00	-9.404544e-01	
1.321885e+00	-8.139448e-01	
1.357755e+00	-6.637547e-01	
-1.909153e-01	3.404159e-01	
-1.637045e-01	3.381572e-01	
-1.675854e-01	-1.732211e-01	
1.187049e+00	-1.057014e+00	
1.226084e+00	-9.476000e-01	
1.291082e+00	-4.266717e-01	
1.334960e+00	-6.316949e-01	
1.335326e+00	-6.557051e-01	
1.256878e+00	-8.922972e-01	
1.246362e+00	-3.462552e-01	
1.236158e+00	-3.681622e-01	
1.281346e+00	-8.464216e-01	
1.223630e+00	-3.541598e-01	
1.328070e+00	-7.909001e-01	
1.254796e+00	-5.790613e-01	
1.293157e+00	-5.402465e-01	
1.267077e+00	-5.464081e-01	
1.238161e+00	-8.782342e-01	
1.235021e+00	-9.010665e-01	
-1.503342e-01	-1.257427e-01	
-2.128559e-01	-2.597244e-01	
-1.900874e-01	-2.835403e-01	
-1.689148e-01	-3.016730e-01	
1.307297e+00	-5.993473e-01	
1.311352e+00	-6.234733e-01	
1.244236e+00	-5.559301e-01	
1.223168e+00	-5.650171e-01	
1.231083e+00	-9.246478e-01	
1.217725e+00	-3.315451e-01	
1.258483e+00	-8.519079e-01	
1.354674e+00	-7.562106e-01	
1.331847e+00	-7.642671e-01	
-1.812550e-01	-2.636388e-01	
1.305485e+00	-7.970580e-01	
-2.041783e-01	2.693977e-01	
1.177182e+00	-1.078358e+00	
1.154232e+00	-1.079952e+00	
1.173145e+00	-3.209134e-01	
-1.841314e-01	2.460410e-01	
-1.655174e-01	2.263413e-01	
1.288112e+00	-4.024781e-01	
1.262515e+00	-3.974632e-01	
1.238968e+00	-3.914848e-01	
1.236818e+00	-5.941248e-01	
1.163796e+00	-1.059486e+00	
-1.747082e-01	3.177345e-01	
-1.495160e-01	3.182983e-01	
1.333777e+00	-7.441274e-01	
1.220301e+00	-1.029073e+00	
1.195715e+00	-1.030878e+00	
1.172409e+00	-1.034966e+00	
1.195282e+00	-3.259880e-01	
1.381435e+00	-7.018369e-01	
1.358413e+00	-6.925662e-01	
1.209095e+00	-9.317499e-01	
1.016867e+00	-9.934131e-01	
1.312238e+00	-7.521318e-01	
1.290502e+00	-6.168354e-01	
1.270288e+00	-5.257863e-01	
1.246061e+00	-5.331412e-01	
1.201500e+00	-3.478601e-01	
1.358157e+00	-7.104355e-01	
1.336433e+00	-7.008909e-01	
1.217842e+00	-3.823122e-01	
1.096158e+00	-1.080952e+00	
-1.577430e-01	-2.189471e-01	
-1.715935e-01	-2.413328e-01	
1.100407e+00	-1.063714e+00	
1.336165e+00	-7.195117e-01	
1.315680e+00	-7.096364e-01	
1.201700e+00	-1.012954e+00	
1.178230e+00	-1.015026e+00	
-1.629248e-01	3.820171e-01	
-1.390337e-01	3.759523e-01	
-1.163501e-01	3.730846e-01	
7.762334e-01	1.368975e-01	
1.179738e+00	-3.423781e-01	
1.131825e+00	-1.082092e+00	
1.122512e+00	-1.061618e+00	
1.006696e+00	-1.010893e+00	
1.213764e+00	-9.094871e-01	
1.074226e+00	-1.080932e+00	
1.992301e-01	-2.998666e-01	
1.215040e+00	-9.763168e-01	
1.191624e+00	-9.764654e-01	
1.266331e+00	-4.171755e-01	
1.242460e+00	-4.112503e-01	
1.220253e+00	-4.047308e-01	
2.407519e-01	-2.863694e-01	
-1.088458e-02	-3.814314e-01	
1.087798e+00	-1.045559e+00	
1.268124e+00	-4.401903e-01	
1.324088e+00	-4.780916e-01	
1.754371e-01	-3.049355e-01	
2.200413e-01	-2.932540e-01	
1.154603e+00	-3.348120e-01	
1.059427e+00	-1.035354e+00	
1.036904e+00	-1.031847e+00	
1.014541e+00	-1.028671e+00	
9.922804e-01	-1.027679e+00	
1.141236e+00	-1.061555e+00	
1.150632e+00	-1.041104e+00	
1.139942e+00	-1.021613e+00	
1.131423e+00	-1.041527e+00	
1.156180e+00	-1.019349e+00	
1.235266e+00	-8.569900e-01	
1.316195e+00	-6.463374e-01	
1.294548e+00	-6.393098e-01	
1.225257e+00	-5.430452e-01	
1.185781e+00	-3.636699e-01	
4.203998e-01	-2.899570e-01	
1.284685e+00	-8.178035e-01	
1.263537e+00	-8.091390e-01	
-1.631385e-01	-2.814626e-01	
4.407518e-01	-2.967754e-01	
1.777424e-01	-2.833107e-01	
3.975897e-01	-2.847901e-01	
1.192672e+00	-9.165408e-01	
1.109735e+00	-1.043729e+00	
9.666345e-01	-2.914329e-01	
3.184540e-01	-2.923832e-01	
-1.288254e-01	-2.373638e-01	
-1.487994e-01	-2.392064e-01	
1.075718e+00	-1.027259e+00	
1.115150e-01	4.342412e-01	
3.423368e-01	-2.932334e-01	
3.615318e-01	-3.029518e-01	
3.829612e-01	-3.004417e-01	
1.199582e+00	-9.586889e-01	
1.177226e+00	-9.596024e-01	
1.133006e+00	-3.311960e-01	
1.296730e+00	-4.904880e-01	
1.200068e+00	-3.957065e-01	
4.997028e-01	-3.484372e-01	
5.203954e-01	-3.524532e-01	
5.169367e-01	-3.363879e-01	
4.978073e-01	-3.275516e-01	
1.107711e+00	-3.263809e-01	
2.971451e-01	-2.920038e-01	
2.563954e-01	-2.805985e-01	
3.531377e-01	-2.784090e-01	
1.185460e+00	-9.959231e-01	
1.163106e+00	-9.985066e-01	
5.556776e-02	4.095323e-01	
-1.404374e-01	1.729556e-01	
1.213518e+00	-8.600068e-01	
1.118696e+00	-1.024159e+00	
3.738392e-01	-2.852110e-01	
-9.464596e-02	3.721671e-01	
1.537475e-01	-3.133279e-01	
-5.705546e-02	3.835920e-01	
-3.553844e-02	3.835752e-01	
1.164631e+00	-3.583584e-01	
-1.611866e-01	-1.486678e-01	
2.994951e-01	-2.748034e-01	
1.273643e+00	-6.319469e-01	
1.064301e+00	-1.008740e+00	
1.311185e+00	-7.748165e-01	
1.289393e+00	-7.810731e-01	
1.097423e+00	-1.025934e+00	
-1.515317e-01	3.598119e-01	
-1.283798e-01	3.554893e-01	
-1.064181e-01	3.537692e-01	
1.066556e+00	-1.051133e+00	
1.043636e+00	-1.051691e+00	
-1.490453e-01	2.084600e-01	
1.268374e+00	-7.877030e-01	
5.875193e-01	-3.976843e-01	
6.009831e-01	-4.070724e-01	
-1.588266e-01	-8.860941e-02	
6.204723e-01	-3.996912e-01	
3.205831e-01	-2.705904e-01	
1.169695e+00	-9.799537e-01	
-1.179391e-01	9.504558e-02	
-7.337101e-02	3.705716e-01	
1.140607e+00	-3.513820e-01	
2.777606e-01	-2.783040e-01	
2.039563e-01	-2.786825e-01	
2.245105e-01	-2.720724e-01	
2.440424e-01	-2.630912e-01	
1.043589e+00	-3.239384e-01	
1.064423e+00	-3.239672e-01	
1.086273e+00	-3.246293e-01	
1.050804e+00	-1.067678e+00	
1.028419e+00	-1.068016e+00	
1.035671e+00	-1.084092e+00	
1.013801e+00	-1.084143e+00	
1.245523e+00	-4.303958e-01	
1.223214e+00	-4.240418e-01	
1.202196e+00	-4.172609e-01	
4.037804e-01	-3.052827e-01	
3.893534e-01	-2.705852e-01	
1.106650e+00	-1.006934e+00	
9.485861e-01	-9.147250e-01	
9.685825e-01	-9.148599e-01	
9.585135e-01	-9.324028e-01	
9.690059e-01	-9.502582e-01	
1.315799e+00	-7.299371e-01	
1.295146e+00	-7.380706e-01	
1.271586e+00	-5.020487e-01	
9.903766e-01	-9.711646e-01	
1.295626e+00	-4.688930e-01	
1.269451e+00	-4.612429e-01	
1.246585e+00	-4.520074e-01	
5.394059e-01	-3.412461e-01	
4.247005e-01	-3.110070e-01	
1.170515e+00	-3.789932e-01	
9.790165e-01	-9.321526e-01	
1.036072e+00	-1.004999e+00	
1.036290e+00	-9.827984e-01	
3.269382e-01	-2.504987e-01	
5.996967e-01	-3.819746e-01	
-5.180579e-02	3.682077e-01	
-1.435172e-02	3.802370e-01	