TITLE = "SU2 Simulation"
VARIABLES = "Iteration","CLift","CDrag","CSideForce","CMx","CMy","CMz","CFx","CFy","CFz","CL/CD","Res_Flow[0]","Res_Flow[1]","Res_Flow[2]","Res_Flow[3]","Res_Flow[4]","Linear_Solver_Iterations","Time(min)"
ZONE T= "Convergence history"
           0, 0.0000000000, 0.0000000000, 0.0000000000, 0.0000000000, 0.0000000000, 0.0000000000, 0.0000000000, 0.0000000000, 0.0000000000, 0.0000000000, -1.7010906191, -1.4064892583, -16.0000000000, -0.9220981716, 0.0000000000, 3.0000000000, 0.0012870471
           1, 0.0000000000, 0.0000000000, 0.0000000000, 0.0000000000, 0.0000000000, 0.0000000000, 0.0000000000, 0.0000000000, 0.0000000000, 0.0000000000, -1.9821138515, -1.5880550287, -2.5351263489, -1.1148188572, 0.0000000000, 3.0000000000, 0.0023968657
           2, 0.0000000000, 0.0000000000, 0.0000000000, 0.0000000000, 0.0000000000, 0.0000000000, 0.0000000000, 0.0000000000, 0.0000000000, 0.0000000000, -2.0456383239, -1.6293135832, -2.6547364966, -1.1392331255, 0.0000000000, 4.0000000000, 0.0037464499
           3, 0.0000000000, 0.0000000000, 0.0000000000, 0.0000000000, 0.0000000000, 0.0000000000, 0.0000000000, 0.0000000000, 0.0000000000, 0.0000000000, -2.2044253569, -1.8386471589, -2.5441984705, -1.3418167620, 0.0000000000, 4.0000000000, 0.0050633987
           4, 0.0000000000, 0.0000000000, 0.0000000000, 0.0000000000, 0.0000000000, 0.0000000000, 0.0000000000, 0.0000000000, 0.0000000000, 0.0000000000, -2.2702361511, -1.9710872874, -2.5301529255, -1.4771845680, 0.0000000000, 3.0000000000, 0.0063669165
           5, 0.0000000000, 0.0000000000, 0.0000000000, 0.0000000000, 0.0000000000, 0.0000000000, 0.0000000000, 0.0000000000, 0.0000000000, 0.0000000000, -2.3250165334, -2.0660201793, -2.5251335491, -1.5424989634, 0.0000000000, 3.0000000000, 0.0076201638
           6, 0.0000000000, 0.0000000000, 0.0000000000, 0.0000000000, 0.0000000000, 0.0000000000, 0.0000000000, 0.0000000000, 0.0000000000, 0.0000000000, -2.3720021645, -2.1386737088, -2.5165560856, -1.5794279556, 0.0000000000, 3.0000000000, 0.0088910977
           7, 0.0000000000, 0.0000000000, 0.0000000000, 0.0000000000, 0.0000000000, 0.0000000000, 0.0000000000, 0.0000000000, 0.0000000000, 0.0000000000, -2.4016827252, -2.1801400507, -2.5249180286, -1.6015663104, 0.0000000000, 3.0000000000, 0.0102079153
           8, 0.0000000000, 0.0000000000, 0.0000000000, 0.0000000000, 0.0000000000, 0.0000000000, 0.0000000000, 0.0000000000, 0.0000000000, 0.0000000000, -2.4229919382, -2.2038907976, -2.5504760784, -1.6176217169, 0.0000000000, 3.0000000000, 0.0114208659
           9, 0.0000000000, 0.0000000000, 0.0000000000, 0.0000000000, 0.0000000000, 0.0000000000, 0.0000000000, 0.0000000000, 0.0000000000, 0.0000000000, -2.4402614622, -2.2146703064, -2.5942967447, -1.6277897245, 0.0000000000, 3.0000000000, 0.0126575828
          10, 0.0000000000, 0.0000000000, 0.0000000000, 0.0000000000, 0.0000000000, 0.0000000000, 0.0000000000, 0.0000000000, 0.0000000000, 0.0000000000, -2.4580682364, -2.2182063611, -2.6565786217, -1.6369954251, 0.0000000000, 3.0000000000, 0.0138074001
          11, 0.0000000000, 0.0000000000, 0.0000000000, 0.0000000000, 0.0000000000, 0.0000000000, 0.0000000000, 0.0000000000, 0.0000000000, 0.0000000000, -2.4831097900, -2.2205440452, -2.7212953721, -1.6531926293, 0.0000000000, 3.0000000000, 0.0150719643
          12, 0.0000000000, 0.0000000000, 0.0000000000, 0.0000000000, 0.0000000000, 0.0000000000, 0.0000000000, 0.0000000000, 0.0000000000, 0.0000000000, -2.5206163968, -2.2247666068, -2.7605152907, -1.6815359080, 0.0000000000, 3.0000000000, 0.0163224816
          13, 0.0000000000, 0.0000000000, 0.0000000000, 0.0000000000, 0.0000000000, 0.0000000000, 0.0000000000, 0.0000000000, 0.0000000000, 0.0000000000, -2.5712160230, -2.2334384032, -2.7695724222, -1.7226345247, 0.0000000000, 3.0000000000, 0.0175592661
          14, 0.0000000000, 0.0000000000, 0.0000000000, 0.0000000000, 0.0000000000, 0.0000000000, 0.0000000000, 0.0000000000, 0.0000000000, 0.0000000000, -2.6293517720, -2.2484693169, -2.7694937185, -1.7728683996, 0.0000000000, 3.0000000000, 0.0188742002
          15, 0.0000000000, 0.0000000000, 0.0000000000, 0.0000000000, 0.0000000000, 0.0000000000, 0.0000000000, 0.0000000000, 0.0000000000, 0.0000000000, -2.6839843902, -2.2694797280, -2.7747733191, -1.8252384094, 0.0000000000, 3.0000000000, 0.0201089978
          16, 0.0000000000, 0.0000000000, 0.0000000000, 0.0000000000, 0.0000000000, 0.0000000000, 0.0000000000, 0.0000000000, 0.0000000000, 0.0000000000, -2.7239434579, -2.2936457912, -2.7886377148, -1.8715981492, 0.0000000000, 3.0000000000, 0.0213176489
          17, 0.0000000000, 0.0000000000, 0.0000000000, 0.0000000000, 0.0000000000, 0.0000000000, 0.0000000000, 0.0000000000, 0.0000000000, 0.0000000000, -2.7454445183, -2.3169015896, -2.8101954408, -1.9061094031, 0.0000000000, 3.0000000000, 0.0225416978
          18, 0.0000000000, 0.0000000000, 0.0000000000, 0.0000000000, 0.0000000000, 0.0000000000, 0.0000000000, 0.0000000000, 0.0000000000, 0.0000000000, -2.7538125108, -2.3362314211, -2.8391569547, -1.9281217896, 0.0000000000, 3.0000000000, 0.0237980326
          19, 0.0000000000, 0.0000000000, 0.0000000000, 0.0000000000, 0.0000000000, 0.0000000000, 0.0000000000, 0.0000000000, 0.0000000000, 0.0000000000, -2.7572975861, -2.3504867480, -2.8738578500, -1.9415139464, 0.0000000000, 3.0000000000, 0.0249224822
          20, 0.0000000000, 0.0000000000, 0.0000000000, 0.0000000000, 0.0000000000, 0.0000000000, 0.0000000000, 0.0000000000, 0.0000000000, 0.0000000000, -2.7631495413, -2.3611256712, -2.9121597911, -1.9527426581, 0.0000000000, 3.0000000000, 0.0260882656
          21, 0.0000000000, 0.0000000000, 0.0000000000, 0.0000000000, 0.0000000000, 0.0000000000, 0.0000000000, 0.0000000000, 0.0000000000, 0.0000000000, -2.7750081393, -2.3704386097, -2.9515995329, -1.9677639351, 0.0000000000, 3.0000000000, 0.0272983313
          22, 0.0000000000, 0.0000000000, 0.0000000000, 0.0000000000, 0.0000000000, 0.0000000000, 0.0000000000, 0.0000000000, 0.0000000000, 0.0000000000, -2.7938212596, -2.3804565952, -2.9906577235, -1.9901258538, 0.0000000000, 3.0000000000, 0.0286377152
          23, 0.0000000000, 0.0000000000, 0.0000000000, 0.0000000000, 0.0000000000, 0.0000000000, 0.0000000000, 0.0000000000, 0.0000000000, 0.0000000000, -2.8184721804, -2.3930719202, -3.0262850915, -2.0200450673, 0.0000000000, 3.0000000000, 0.0298853834
          24, 0.0000000000, 0.0000000000, 0.0000000000, 0.0000000000, 0.0000000000, 0.0000000000, 0.0000000000, 0.0000000000, 0.0000000000, 0.0000000000, -2.8443311100, -2.4102948743, -3.0531218132, -2.0527975248, 0.0000000000, 3.0000000000, 0.0311343670
          25, 0.0000000000, 0.0000000000, 0.0000000000, 0.0000000000, 0.0000000000, 0.0000000000, 0.0000000000, 0.0000000000, 0.0000000000, 0.0000000000, -2.8608468397, -2.4337158628, -3.0695745548, -2.0765952430, 0.0000000000, 3.0000000000, 0.0323578000
          26, 0.0000000000, 0.0000000000, 0.0000000000, 0.0000000000, 0.0000000000, 0.0000000000, 0.0000000000, 0.0000000000, 0.0000000000, 0.0000000000, -2.8578101354, -2.4639973681, -3.0827577754, -2.0788167059, 0.0000000000, 3.0000000000, 0.0335329970
          27, 0.0000000000, 0.0000000000, 0.0000000000, 0.0000000000, 0.0000000000, 0.0000000000, 0.0000000000, 0.0000000000, 0.0000000000, 0.0000000000, -2.8363299209, -2.5006395232, -3.0953884926, -2.0591730628, 0.0000000000, 3.0000000000, 0.0346799135
          28, 0.0000000000, 0.0000000000, 0.0000000000, 0.0000000000, 0.0000000000, 0.0000000000, 0.0000000000, 0.0000000000, 0.0000000000, 0.0000000000, -2.7960866755, -2.5473019598, -3.0981648753, -2.0180521510, 0.0000000000, 3.0000000000, 0.0358981490
          29, 0.0000000000, 0.0000000000, 0.0000000000, 0.0000000000, 0.0000000000, 0.0000000000, 0.0000000000, 0.0000000000, 0.0000000000, 0.0000000000, -2.7654291841, -2.5916294211, -3.1009545031, -1.9858667152, 0.0000000000, 3.0000000000, 0.0370901823
          30, 0.0000000000, 0.0000000000, 0.0000000000, 0.0000000000, 0.0000000000, 0.0000000000, 0.0000000000, 0.0000000000, 0.0000000000, 0.0000000000, -2.7630076015, -2.6174218772, -3.1114381987, -1.9825955348, 0.0000000000, 3.0000000000, 0.0382717808
          31, 0.0000000000, 0.0000000000, 0.0000000000, 0.0000000000, 0.0000000000, 0.0000000000, 0.0000000000, 0.0000000000, 0.0000000000, 0.0000000000, -2.7701248609, -2.6323038982, -3.1281005582, -1.9898324339, 0.0000000000, 3.0000000000, 0.0394978325
          32, 0.0000000000, 0.0000000000, 0.0000000000, 0.0000000000, 0.0000000000, 0.0000000000, 0.0000000000, 0.0000000000, 0.0000000000, 0.0000000000, -2.7800982064, -2.6411557991, -3.1463585957, -2.0011703574, 0.0000000000, 3.0000000000, 0.0407913804
          33, 0.0000000000, 0.0000000000, 0.0000000000, 0.0000000000, 0.0000000000, 0.0000000000, 0.0000000000, 0.0000000000, 0.0000000000, 0.0000000000, -2.7919575844, -2.6421729446, -3.1696338947, -2.0155472540, 0.0000000000, 3.0000000000, 0.0420803150
          34, 0.0000000000, 0.0000000000, 0.0000000000, 0.0000000000, 0.0000000000, 0.0000000000, 0.0000000000, 0.0000000000, 0.0000000000, 0.0000000000, -2.8060387677, -2.6373329572, -3.1907195114, -2.0328667609, 0.0000000000, 3.0000000000, 0.0432015816
          35, 0.0000000000, 0.0000000000, 0.0000000000, 0.0000000000, 0.0000000000, 0.0000000000, 0.0000000000, 0.0000000000, 0.0000000000, 0.0000000000, -2.8227177604, -2.6315327576, -3.2035175824, -2.0535268494, 0.0000000000, 3.0000000000, 0.0443869988
          36, 0.0000000000, 0.0000000000, 0.0000000000, 0.0000000000, 0.0000000000, 0.0000000000, 0.0000000000, 0.0000000000, 0.0000000000, 0.0000000000, -2.8413786015, -2.6273558082, -3.2101489547, -2.0771663428, 0.0000000000, 3.0000000000, 0.0457248807
          37, 0.0000000000, 0.0000000000, 0.0000000000, 0.0000000000, 0.0000000000, 0.0000000000, 0.0000000000, 0.0000000000, 0.0000000000, 0.0000000000, -2.8603791168, -2.6261388105, -3.2146001288, -2.1025732477, 0.0000000000, 3.0000000000, 0.0469698985
          38, 0.0000000000, 0.0000000000, 0.0000000000, 0.0000000000, 0.0000000000, 0.0000000000, 0.0000000000, 0.0000000000, 0.0000000000, 0.0000000000, -2.8765272421, -2.6238592177, -3.2187447363, -2.1271407090, 0.0000000000, 3.0000000000, 0.0482122501
          39, 0.0000000000, 0.0000000000, 0.0000000000, 0.0000000000, 0.0000000000, 0.0000000000, 0.0000000000, 0.0000000000, 0.0000000000, 0.0000000000, -2.8915172329, -2.6189599882, -3.2159945242, -2.1508897198, 0.0000000000, 3.0000000000, 0.0494661649
          40, 0.0000000000, 0.0000000000, 0.0000000000, 0.0000000000, 0.0000000000, 0.0000000000, 0.0000000000, 0.0000000000, 0.0000000000, 0.0000000000, -2.9120003574, -2.6211999562, -3.1999894908, -2.1796821011, 0.0000000000, 3.0000000000, 0.0506616672
          41, 0.0000000000, 0.0000000000, 0.0000000000, 0.0000000000, 0.0000000000, 0.0000000000, 0.0000000000, 0.0000000000, 0.0000000000, 0.0000000000, -2.9304953725, -2.6264524586, -3.1878259007, -2.2080145455, 0.0000000000, 3.0000000000, 0.0521312157
          42, 0.0000000000, 0.0000000000, 0.0000000000, 0.0000000000, 0.0000000000, 0.0000000000, 0.0000000000, 0.0000000000, 0.0000000000, 0.0000000000, -2.9434552775, -2.6252122808, -3.1933827904, -2.2310577732, 0.0000000000, 3.0000000000, 0.0535545826
          43, 0.0000000000, 0.0000000000, 0.0000000000, 0.0000000000, 0.0000000000, 0.0000000000, 0.0000000000, 0.0000000000, 0.0000000000, 0.0000000000, -2.9646494955, -2.6267731042, -3.1981690008, -2.2582565024, 0.0000000000, 3.0000000000, 0.0551368634
          44, 0.0000000000, 0.0000000000, 0.0000000000, 0.0000000000, 0.0000000000, 0.0000000000, 0.0000000000, 0.0000000000, 0.0000000000, 0.0000000000, -2.9830405490, -2.6454847671, -3.2052417939, -2.2873226776, 0.0000000000, 3.0000000000, 0.0567721645
          45, 0.0000000000, 0.0000000000, 0.0000000000, 0.0000000000, 0.0000000000, 0.0000000000, 0.0000000000, 0.0000000000, 0.0000000000, 0.0000000000, -2.9855935232, -2.6455686649, -3.2259795599, -2.3040799714, 0.0000000000, 3.0000000000, 0.0583538810
          46, 0.0000000000, 0.0000000000, 0.0000000000, 0.0000000000, 0.0000000000, 0.0000000000, 0.0000000000, 0.0000000000, 0.0000000000, 0.0000000000, -3.0060999997, -2.6570414077, -3.2556784349, -2.3324018755, 0.0000000000, 3.0000000000, 0.0596906821
          47, 0.0000000000, 0.0000000000, 0.0000000000, 0.0000000000, 0.0000000000, 0.0000000000, 0.0000000000, 0.0000000000, 0.0000000000, 0.0000000000, -3.0427040527, -2.6998037397, -3.2909820756, -2.3784099578, 0.0000000000, 3.0000000000, 0.0609340827
          48, 0.0000000000, 0.0000000000, 0.0000000000, 0.0000000000, 0.0000000000, 0.0000000000, 0.0000000000, 0.0000000000, 0.0000000000, 0.0000000000, -3.0676346071, -2.7316861503, -3.3252269727, -2.4111929010, 0.0000000000, 3.0000000000, 0.0622253140
          49, 0.0000000000, 0.0000000000, 0.0000000000, 0.0000000000, 0.0000000000, 0.0000000000, 0.0000000000, 0.0000000000, 0.0000000000, 0.0000000000, -3.0904261354, -2.7558704126, -3.3557292489, -2.4357916398, 0.0000000000, 3.0000000000, 0.0635015647
          50, 0.0000000000, 0.0000000000, 0.0000000000, 0.0000000000, 0.0000000000, 0.0000000000, 0.0000000000, 0.0000000000, 0.0000000000, 0.0000000000, -3.1296377714, -2.7962161380, -3.3890314357, -2.4665541159, 0.0000000000, 3.0000000000, 0.0647148132
          51, 0.0000000000, 0.0000000000, 0.0000000000, 0.0000000000, 0.0000000000, 0.0000000000, 0.0000000000, 0.0000000000, 0.0000000000, 0.0000000000, -3.1802162566, -2.8574727145, -3.4284153277, -2.4976405243, 0.0000000000, 3.0000000000, 0.0659551978
          52, 0.0000000000, 0.0000000000, 0.0000000000, 0.0000000000, 0.0000000000, 0.0000000000, 0.0000000000, 0.0000000000, 0.0000000000, 0.0000000000, -3.2139995288, -2.9083946590, -3.4824900960, -2.5140273514, 0.0000000000, 3.0000000000, 0.0672466636
          53, 0.0000000000, 0.0000000000, 0.0000000000, 0.0000000000, 0.0000000000, 0.0000000000, 0.0000000000, 0.0000000000, 0.0000000000, 0.0000000000, -3.2457067882, -2.9533819141, -3.5323191088, -2.5304664798, 0.0000000000, 3.0000000000, 0.0685160995
          54, 0.0000000000, 0.0000000000, 0.0000000000, 0.0000000000, 0.0000000000, 0.0000000000, 0.0000000000, 0.0000000000, 0.0000000000, 0.0000000000, -3.3002987372, -3.0232146645, -3.5752391734, -2.5584160805, 0.0000000000, 3.0000000000, 0.0698072155
          55, 0.0000000000, 0.0000000000, 0.0000000000, 0.0000000000, 0.0000000000, 0.0000000000, 0.0000000000, 0.0000000000, 0.0000000000, 0.0000000000, -3.3597243622, -3.0987477312, -3.6151680599, -2.5843361910, 0.0000000000, 3.0000000000, 0.0710454663
          56, 0.0000000000, 0.0000000000, 0.0000000000, 0.0000000000, 0.0000000000, 0.0000000000, 0.0000000000, 0.0000000000, 0.0000000000, 0.0000000000, -3.3991354214, -3.1492869574, -3.6518435584, -2.6025130823, 0.0000000000, 3.0000000000, 0.0723489165
          57, 0.0000000000, 0.0000000000, 0.0000000000, 0.0000000000, 0.0000000000, 0.0000000000, 0.0000000000, 0.0000000000, 0.0000000000, 0.0000000000, -3.4239216363, -3.1786378474, -3.6854142098, -2.6194802437, 0.0000000000, 3.0000000000, 0.0736057480
          58, 0.0000000000, 0.0000000000, 0.0000000000, 0.0000000000, 0.0000000000, 0.0000000000, 0.0000000000, 0.0000000000, 0.0000000000, 0.0000000000, -3.4490077017, -3.2008019278, -3.7151016511, -2.6403570718, 0.0000000000, 3.0000000000, 0.0748945634
          59, 0.0000000000, 0.0000000000, 0.0000000000, 0.0000000000, 0.0000000000, 0.0000000000, 0.0000000000, 0.0000000000, 0.0000000000, 0.0000000000, -3.4795526488, -3.2206971977, -3.7397532966, -2.6666671689, 0.0000000000, 3.0000000000, 0.0761436303
          60, 0.0000000000, 0.0000000000, 0.0000000000, 0.0000000000, 0.0000000000, 0.0000000000, 0.0000000000, 0.0000000000, 0.0000000000, 0.0000000000, -3.5149912171, -3.2392854089, -3.7596115481, -2.6986005891, 0.0000000000, 3.0000000000, 0.0773669481
          61, 0.0000000000, 0.0000000000, 0.0000000000, 0.0000000000, 0.0000000000, 0.0000000000, 0.0000000000, 0.0000000000, 0.0000000000, 0.0000000000, -3.5545492167, -3.2572530960, -3.7760138325, -2.7360625481, 0.0000000000, 3.0000000000, 0.0786977808
          62, 0.0000000000, 0.0000000000, 0.0000000000, 0.0000000000, 0.0000000000, 0.0000000000, 0.0000000000, 0.0000000000, 0.0000000000, 0.0000000000, -3.5986610527, -3.2751968286, -3.7905017707, -2.7789957344, 0.0000000000, 3.0000000000, 0.0800137162
          63, 0.0000000000, 0.0000000000, 0.0000000000, 0.0000000000, 0.0000000000, 0.0000000000, 0.0000000000, 0.0000000000, 0.0000000000, 0.0000000000, -3.6483584278, -3.2934246740, -3.8044346813, -2.8274352492, 0.0000000000, 3.0000000000, 0.0813495477
          64, 0.0000000000, 0.0000000000, 0.0000000000, 0.0000000000, 0.0000000000, 0.0000000000, 0.0000000000, 0.0000000000, 0.0000000000, 0.0000000000, -3.7044573345, -3.3119921093, -3.8188813483, -2.8813572455, 0.0000000000, 3.0000000000, 0.0826702317
          65, 0.0000000000, 0.0000000000, 0.0000000000, 0.0000000000, 0.0000000000, 0.0000000000, 0.0000000000, 0.0000000000, 0.0000000000, 0.0000000000, -3.7672137694, -3.3308866620, -3.8345517492, -2.9404436045, 0.0000000000, 3.0000000000, 0.0839191000
          66, 0.0000000000, 0.0000000000, 0.0000000000, 0.0000000000, 0.0000000000, 0.0000000000, 0.0000000000, 0.0000000000, 0.0000000000, 0.0000000000, -3.8362681892, -3.3502524983, -3.8517883482, -3.0037693280, 0.0000000000, 3.0000000000, 0.0852074822
          67, 0.0000000000, 0.0000000000, 0.0000000000, 0.0000000000, 0.0000000000, 0.0000000000, 0.0000000000, 0.0000000000, 0.0000000000, 0.0000000000, -3.9101855700, -3.3704323957, -3.8706045738, -3.0691527680, 0.0000000000, 3.0000000000, 0.0865074317
          68, 0.0000000000, 0.0000000000, 0.0000000000, 0.0000000000, 0.0000000000, 0.0000000000, 0.0000000000, 0.0000000000, 0.0000000000, 0.0000000000, -3.9848829033, -3.3918119682, -3.8907369469, -3.1320059067, 0.0000000000, 3.0000000000, 0.0877687335
          69, 0.0000000000, 0.0000000000, 0.0000000000, 0.0000000000, 0.0000000000, 0.0000000000, 0.0000000000, 0.0000000000, 0.0000000000, 0.0000000000, -4.0511902405, -3.4146481997, -3.9117612753, -3.1844102164, 0.0000000000, 3.0000000000, 0.0889889836
          70, 0.0000000000, 0.0000000000, 0.0000000000, 0.0000000000, 0.0000000000, 0.0000000000, 0.0000000000, 0.0000000000, 0.0000000000, 0.0000000000, -4.0948442768, -3.4390050373, -3.9332000632, -3.2168319663, 0.0000000000, 3.0000000000, 0.0902586301
          71, 0.0000000000, 0.0000000000, 0.0000000000, 0.0000000000, 0.0000000000, 0.0000000000, 0.0000000000, 0.0000000000, 0.0000000000, 0.0000000000, -4.1051319367, -3.4647561450, -3.9546392399, -3.2241287792, 0.0000000000, 3.0000000000, 0.0915526668
          72, 0.0000000000, 0.0000000000, 0.0000000000, 0.0000000000, 0.0000000000, 0.0000000000, 0.0000000000, 0.0000000000, 0.0000000000, 0.0000000000, -4.0859969090, -3.4916071200, -3.9758238646, -3.2102543601, 0.0000000000, 3.0000000000, 0.0928224643
          73, 0.0000000000, 0.0000000000, 0.0000000000, 0.0000000000, 0.0000000000, 0.0000000000, 0.0000000000, 0.0000000000, 0.0000000000, 0.0000000000, -4.0517424117, -3.5191080544, -3.9966669551, -3.1848145499, 0.0000000000, 3.0000000000, 0.0940095504
          74, 0.0000000000, 0.0000000000, 0.0000000000, 0.0000000000, 0.0000000000, 0.0000000000, 0.0000000000, 0.0000000000, 0.0000000000, 0.0000000000, -4.0149091846, -3.5466836828, -4.0172063274, -3.1566212494, 0.0000000000, 3.0000000000, 0.0952836633
          75, 0.0000000000, 0.0000000000, 0.0000000000, 0.0000000000, 0.0000000000, 0.0000000000, 0.0000000000, 0.0000000000, 0.0000000000, 0.0000000000, -3.9822795821, -3.5736778402, -4.0375081808, -3.1311269907, 0.0000000000, 3.0000000000, 0.0965318004
          76, 0.0000000000, 0.0000000000, 0.0000000000, 0.0000000000, 0.0000000000, 0.0000000000, 0.0000000000, 0.0000000000, 0.0000000000, 0.0000000000, -3.9566068949, -3.5994102352, -4.0575692005, -3.1110070540, 0.0000000000, 3.0000000000, 0.0978729169
          77, 0.0000000000, 0.0000000000, 0.0000000000, 0.0000000000, 0.0000000000, 0.0000000000, 0.0000000000, 0.0000000000, 0.0000000000, 0.0000000000, -3.9386933860, -3.6232553970, -4.0772214964, -3.0973429174, 0.0000000000, 3.0000000000, 0.0990618666
          78, 0.0000000000, 0.0000000000, 0.0000000000, 0.0000000000, 0.0000000000, 0.0000000000, 0.0000000000, 0.0000000000, 0.0000000000, 0.0000000000, -3.9285259755, -3.6446859652, -4.0962785570, -3.0904043762, 0.0000000000, 3.0000000000, 0.1003878633
          79, 0.0000000000, 0.0000000000, 0.0000000000, 0.0000000000, 0.0000000000, 0.0000000000, 0.0000000000, 0.0000000000, 0.0000000000, 0.0000000000, -3.9258538496, -3.6634192146, -4.1143038726, -3.0901698668, 0.0000000000, 3.0000000000, 0.1016050657
          80, 0.0000000000, 0.0000000000, 0.0000000000, 0.0000000000, 0.0000000000, 0.0000000000, 0.0000000000, 0.0000000000, 0.0000000000, 0.0000000000, -3.9303953679, -3.6794319028, -4.1308240972, -3.0964973217, 0.0000000000, 3.0000000000, 0.1028546651
          81, 0.0000000000, 0.0000000000, 0.0000000000, 0.0000000000, 0.0000000000, 0.0000000000, 0.0000000000, 0.0000000000, 0.0000000000, 0.0000000000, -3.9419146470, -3.6929524465, -4.1455597406, -3.1092232702, 0.0000000000, 3.0000000000, 0.1041374644
          82, 0.0000000000, 0.0000000000, 0.0000000000, 0.0000000000, 0.0000000000, 0.0000000000, 0.0000000000, 0.0000000000, 0.0000000000, 0.0000000000, -3.9602536585, -3.7044473444, -4.1583259567, -3.1282260043, 0.0000000000, 3.0000000000, 0.1055142005
          83, 0.0000000000, 0.0000000000, 0.0000000000, 0.0000000000, 0.0000000000, 0.0000000000, 0.0000000000, 0.0000000000, 0.0000000000, 0.0000000000, -3.9853487996, -3.7145454437, -4.1691004805, -3.1534369029, 0.0000000000, 3.0000000000, 0.1068178654
          84, 0.0000000000, 0.0000000000, 0.0000000000, 0.0000000000, 0.0000000000, 0.0000000000, 0.0000000000, 0.0000000000, 0.0000000000, 0.0000000000, -4.0172299707, -3.7239493766, -4.1780577834, -3.1848411321, 0.0000000000, 3.0000000000, 0.1080272635
          85, 0.0000000000, 0.0000000000, 0.0000000000, 0.0000000000, 0.0000000000, 0.0000000000, 0.0000000000, 0.0000000000, 0.0000000000, 0.0000000000, -4.0559938287, -3.7333313434, -4.1854868123, -3.2224493412, 0.0000000000, 3.0000000000, 0.1092293978
          86, 0.0000000000, 0.0000000000, 0.0000000000, 0.0000000000, 0.0000000000, 0.0000000000, 0.0000000000, 0.0000000000, 0.0000000000, 0.0000000000, -4.1017712961, -3.7432832745, -4.1917610423, -3.2662582215, 0.0000000000, 3.0000000000, 0.1105010668
          87, 0.0000000000, 0.0000000000, 0.0000000000, 0.0000000000, 0.0000000000, 0.0000000000, 0.0000000000, 0.0000000000, 0.0000000000, 0.0000000000, -4.1546385883, -3.7542858625, -4.1972897421, -3.3161589220, 0.0000000000, 3.0000000000, 0.1117454966
          88, 0.0000000000, 0.0000000000, 0.0000000000, 0.0000000000, 0.0000000000, 0.0000000000, 0.0000000000, 0.0000000000, 0.0000000000, 0.0000000000, -4.2144109866, -3.7666926610, -4.2024788180, -3.3717478967, 0.0000000000, 3.0000000000, 0.1130256971
          89, 0.0000000000, 0.0000000000, 0.0000000000, 0.0000000000, 0.0000000000, 0.0000000000, 0.0000000000, 0.0000000000, 0.0000000000, 0.0000000000, -4.2801973863, -3.7807309492, -4.2077022189, -3.4319695141, 0.0000000000, 3.0000000000, 0.1142504136
          90, 0.0000000000, 0.0000000000, 0.0000000000, 0.0000000000, 0.0000000000, 0.0000000000, 0.0000000000, 0.0000000000, 0.0000000000, 0.0000000000, -4.3495020240, -3.7965076222, -4.2132770668, -3.4944945242, 0.0000000000, 3.0000000000, 0.1155129989
          91, 0.0000000000, 0.0000000000, 0.0000000000, 0.0000000000, 0.0000000000, 0.0000000000, 0.0000000000, 0.0000000000, 0.0000000000, 0.0000000000, -4.4167635560, -3.8140205156, -4.2194517205, -3.5548806530, 0.0000000000, 3.0000000000, 0.1167962988
          92, 0.0000000000, 0.0000000000, 0.0000000000, 0.0000000000, 0.0000000000, 0.0000000000, 0.0000000000, 0.0000000000, 0.0000000000, 0.0000000000, -4.4722049064, -3.8331621146, -4.2263986424, -3.6061329753, 0.0000000000, 3.0000000000, 0.1179782669
          93, 0.0000000000, 0.0000000000, 0.0000000000, 0.0000000000, 0.0000000000, 0.0000000000, 0.0000000000, 0.0000000000, 0.0000000000, 0.0000000000, -4.5043187945, -3.8537282986, -4.2342126953, -3.6403227493, 0.0000000000, 3.0000000000, 0.1193373164
          94, 0.0000000000, 0.0000000000, 0.0000000000, 0.0000000000, 0.0000000000, 0.0000000000, 0.0000000000, 0.0000000000, 0.0000000000, 0.0000000000, -4.5079959357, -3.8754299916, -4.2429138265, -3.6530813723, 0.0000000000, 3.0000000000, 0.1205607653
          95, 0.0000000000, 0.0000000000, 0.0000000000, 0.0000000000, 0.0000000000, 0.0000000000, 0.0000000000, 0.0000000000, 0.0000000000, 0.0000000000, -4.4894989829, -3.8978889874, -4.2524544170, -3.6470367322, 0.0000000000, 3.0000000000, 0.1218575160
          96, 0.0000000000, 0.0000000000, 0.0000000000, 0.0000000000, 0.0000000000, 0.0000000000, 0.0000000000, 0.0000000000, 0.0000000000, 0.0000000000, -4.4604062936, -3.9206533805, -4.2627308443, -3.6296377289, 0.0000000000, 3.0000000000, 0.1231304487
          97, 0.0000000000, 0.0000000000, 0.0000000000, 0.0000000000, 0.0000000000, 0.0000000000, 0.0000000000, 0.0000000000, 0.0000000000, 0.0000000000, -4.4299562958, -3.9432332780, -4.2735958446, -3.6083967756, 0.0000000000, 3.0000000000, 0.1244074980
          98, 0.0000000000, 0.0000000000, 0.0000000000, 0.0000000000, 0.0000000000, 0.0000000000, 0.0000000000, 0.0000000000, 0.0000000000, 0.0000000000, -4.4032020742, -3.9651154325, -4.2848764470, -3.5883928634, 0.0000000000, 3.0000000000, 0.1256507476
          99, 0.0000000000, 0.0000000000, 0.0000000000, 0.0000000000, 0.0000000000, 0.0000000000, 0.0000000000, 0.0000000000, 0.0000000000, 0.0000000000, -4.3823103104, -3.9858187525, -4.2963951607, -3.5723822054, 0.0000000000, 3.0000000000, 0.1269120336
         100, 0.0000000000, 0.0000000000, 0.0000000000, 0.0000000000, 0.0000000000, 0.0000000000, 0.0000000000, 0.0000000000, 0.0000000000, 0.0000000000, -4.3679736648, -4.0049492711, -4.3079818383, -3.5616397838, 0.0000000000, 4.0000000000, 0.1282173316
         101, 0.0000000000, 0.0000000000, 0.0000000000, 0.0000000000, 0.0000000000, 0.0000000000, 0.0000000000, 0.0000000000, 0.0000000000, 0.0000000000, -4.3378845611, -4.0059869626, -4.3015924066, -3.5328442376, 0.0000000000, 4.0000000000, 0.1295679172
         102, 0.0000000000, 0.0000000000, 0.0000000000, 0.0000000000, 0.0000000000, 0.0000000000, 0.0000000000, 0.0000000000, 0.0000000000, 0.0000000000, -4.3405523839, -4.0204215415, -4.3079790492, -3.5377974065, 0.0000000000, 4.0000000000, 0.1308987975
         103, 0.0000000000, 0.0000000000, 0.0000000000, 0.0000000000, 0.0000000000, 0.0000000000, 0.0000000000, 0.0000000000, 0.0000000000, 0.0000000000, -4.3610482854, -4.0381174061, -4.3217319201, -3.5607992987, 0.0000000000, 4.0000000000, 0.1322473486
         104, 0.0000000000, 0.0000000000, 0.0000000000, 0.0000000000, 0.0000000000, 0.0000000000, 0.0000000000, 0.0000000000, 0.0000000000, 0.0000000000, -4.3938622687, -4.0549582415, -4.3377349535, -3.5958242353, 0.0000000000, 4.0000000000, 0.1335799495
         105, 0.0000000000, 0.0000000000, 0.0000000000, 0.0000000000, 0.0000000000, 0.0000000000, 0.0000000000, 0.0000000000, 0.0000000000, 0.0000000000, -4.4380422777, -4.0709973574, -4.3536163248, -3.6415847111, 0.0000000000, 4.0000000000, 0.1348926822
         106, 0.0000000000, 0.0000000000, 0.0000000000, 0.0000000000, 0.0000000000, 0.0000000000, 0.0000000000, 0.0000000000, 0.0000000000, 0.0000000000, -4.4937523926, -4.0873956426, -4.3689629778, -3.6980292282, 0.0000000000, 4.0000000000, 0.1361482819
         107, 0.0000000000, 0.0000000000, 0.0000000000, 0.0000000000, 0.0000000000, 0.0000000000, 0.0000000000, 0.0000000000, 0.0000000000, 0.0000000000, -4.5607600170, -4.1049951589, -4.3842857591, -3.7644635782, 0.0000000000, 4.0000000000, 0.1374623815
         108, 0.0000000000, 0.0000000000, 0.0000000000, 0.0000000000, 0.0000000000, 0.0000000000, 0.0000000000, 0.0000000000, 0.0000000000, 0.0000000000, -4.6376678336, -4.1242581373, -4.4000834848, -3.8383815202, 0.0000000000, 4.0000000000, 0.1388563156
         109, 0.0000000000, 0.0000000000, 0.0000000000, 0.0000000000, 0.0000000000, 0.0000000000, 0.0000000000, 0.0000000000, 0.0000000000, 0.0000000000, -4.7204651684, -4.1454074934, -4.4165054730, -3.9138182970, 0.0000000000, 4.0000000000, 0.1403441827
         110, 0.0000000000, 0.0000000000, 0.0000000000, 0.0000000000, 0.0000000000, 0.0000000000, 0.0000000000, 0.0000000000, 0.0000000000, 0.0000000000, -4.7996955791, -4.1683735869, -4.4334561547, -3.9794531044, 0.0000000000, 4.0000000000, 0.1416785995
         111, 0.0000000000, 0.0000000000, 0.0000000000, 0.0000000000, 0.0000000000, 0.0000000000, 0.0000000000, 0.0000000000, 0.0000000000, 0.0000000000, -4.8591822645, -4.1927750627, -4.4507699428, -4.0209955267, 0.0000000000, 4.0000000000, 0.1431054672
         112, 0.0000000000, 0.0000000000, 0.0000000000, 0.0000000000, 0.0000000000, 0.0000000000, 0.0000000000, 0.0000000000, 0.0000000000, 0.0000000000, -4.8848602218, -4.2180133517, -4.4682683003, -4.0320841817, 0.0000000000, 4.0000000000, 0.1444365501
         113, 0.0000000000, 0.0000000000, 0.0000000000, 0.0000000000, 0.0000000000, 0.0000000000, 0.0000000000, 0.0000000000, 0.0000000000, 0.0000000000, -4.8797128026, -4.2433752797, -4.4857425032, -4.0212000292, 0.0000000000, 4.0000000000, 0.1457629164
         114, 0.0000000000, 0.0000000000, 0.0000000000, 0.0000000000, 0.0000000000, 0.0000000000, 0.0000000000, 0.0000000000, 0.0000000000, 0.0000000000, -4.8601654530, -4.2681052737, -4.5029563386, -4.0026990638, 0.0000000000, 4.0000000000, 0.1471676469
         115, 0.0000000000, 0.0000000000, 0.0000000000, 0.0000000000, 0.0000000000, 0.0000000000, 0.0000000000, 0.0000000000, 0.0000000000, 0.0000000000, -4.8406953823, -4.2914941247, -4.5196887132, -3.9869568208, 0.0000000000, 4.0000000000, 0.1485266487